# vtk DataFile Version 4.0
hesp visualization file
ASCII
DATASET UNSTRUCTURED_GRID
POINTS 12 double
2.064034 2.064034 8.020153
4.032094 2.064034 8.020153
5.967906 2.064034 8.020153
7.935813 2.064034 8.020153
2.064034 4.032094 8.020153
4.000000 4.000000 8.020153
6.000000 4.000000 8.020153
7.935813 4.032094 8.020153
2.064034 5.967906 8.020153
4.032094 5.935813 8.020153
5.967906 5.935813 8.020153
7.935813 5.967906 8.020153
CELLS 0 0
CELL_TYPES 0
POINT_DATA 12
SCALARS m double
LOOKUP_TABLE default
1.000000
1.000000
1.000000
1.000000
1.000000
1.000000
1.000000
1.000000
1.000000
1.000000
1.000000
1.000000
VECTORS v double
1.000000 1.000000 0.628811
0.500000 1.000000 0.628811
-0.500000 1.000000 0.628811
-1.000000 1.000000 0.628811
1.000000 0.500000 0.628811
0.000000 0.000000 0.628811
0.000000 0.000000 0.628811
-1.000000 0.500000 0.628811
1.000000 -0.500000 0.628811
0.500000 -1.000000 0.628811
-0.500000 -1.000000 0.628811
-1.000000 -0.500000 0.628811
