# vtk DataFile Version 4.0
hesp visualization file
ASCII
DATASET UNSTRUCTURED_GRID
POINTS 90 double
1.142138 1.000000 9.020787
2.183875 1.000000 9.020787
3.131091 1.000000 9.020787
4.041610 1.000000 9.020787
4.953986 1.000000 9.020787
5.848956 1.000000 9.020787
6.742889 1.000000 9.020787
7.667647 1.000000 9.020787
8.542483 1.000000 9.020787
9.443363 1.000000 9.020787
1.142138 2.000000 9.020787
2.183875 2.000000 9.020787
3.131091 2.000000 9.020787
4.041610 2.000000 9.020787
4.953986 2.000000 9.020787
5.848956 2.000000 9.020787
6.742889 2.000000 9.020787
7.667647 2.000000 9.020787
8.542483 2.000000 9.020787
9.443363 2.000000 9.020787
1.142138 3.000000 9.020787
2.183875 3.000000 9.020787
3.131091 3.000000 9.020787
4.041610 3.000000 9.020787
4.953986 3.000000 9.020787
5.848956 3.000000 9.020787
6.742889 3.000000 9.020787
7.667647 3.000000 9.020787
8.542483 3.000000 9.020787
9.443363 3.000000 9.020787
1.142138 4.000000 9.020787
2.183875 4.000000 9.020787
3.131091 4.000000 9.020787
4.041610 4.000000 9.020787
4.953986 4.000000 9.020787
5.848956 4.000000 9.020787
6.742889 4.000000 9.020787
7.667647 4.000000 9.020787
8.542483 4.000000 9.020787
9.443363 4.000000 9.020787
1.142138 5.000000 9.020787
2.183875 5.000000 9.020787
3.131091 5.000000 9.020787
4.041610 5.000000 9.020787
4.953986 5.000000 9.020787
5.848956 5.000000 9.020787
6.742889 5.000000 9.020787
7.667647 5.000000 9.020787
8.542483 5.000000 9.020787
9.443363 5.000000 9.020787
1.142138 6.000000 9.020787
2.183875 6.000000 9.020787
3.131091 6.000000 9.020787
4.041610 6.000000 9.020787
4.953986 6.000000 9.020787
5.848956 6.000000 9.020787
6.742889 6.000000 9.020787
7.667647 6.000000 9.020787
8.542483 6.000000 9.020787
9.443363 6.000000 9.020787
1.142138 7.000000 9.020787
2.183875 7.000000 9.020787
3.131091 7.000000 9.020787
4.041610 7.000000 9.020787
4.953986 7.000000 9.020787
5.848956 7.000000 9.020787
6.742889 7.000000 9.020787
7.667647 7.000000 9.020787
8.542483 7.000000 9.020787
9.443363 7.000000 9.020787
1.142138 8.000000 9.020787
2.183875 8.000000 9.020787
3.131091 8.000000 9.020787
4.041610 8.000000 9.020787
4.953986 8.000000 9.020787
5.848956 8.000000 9.020787
6.742889 8.000000 9.020787
7.667647 8.000000 9.020787
8.542483 8.000000 9.020787
9.443363 8.000000 9.020787
1.142138 9.000000 9.020787
2.183875 9.000000 9.020787
3.131091 9.000000 9.020787
4.041610 9.000000 9.020787
4.953986 9.000000 9.020787
5.848956 9.000000 9.020787
6.742889 9.000000 9.020787
7.667647 9.000000 9.020787
8.542483 9.000000 9.020787
9.443363 9.000000 9.020787
CELLS 0 0
CELL_TYPES 0
POINT_DATA 90
SCALARS m double
LOOKUP_TABLE default
1.000000
1.000000
1.000000
1.000000
1.000000
1.000000
1.000000
1.000000
1.000000
1.000000
1.000000
1.000000
1.000000
1.000000
1.000000
1.000000
1.000000
1.000000
1.000000
1.000000
1.000000
1.000000
1.000000
1.000000
1.000000
1.000000
1.000000
1.000000
1.000000
1.000000
1.000000
1.000000
1.000000
1.000000
1.000000
1.000000
1.000000
1.000000
1.000000
1.000000
1.000000
1.000000
1.000000
1.000000
1.000000
1.000000
1.000000
1.000000
1.000000
1.000000
1.000000
1.000000
1.000000
1.000000
1.000000
1.000000
1.000000
1.000000
1.000000
1.000000
1.000000
1.000000
1.000000
1.000000
1.000000
1.000000
1.000000
1.000000
1.000000
1.000000
1.000000
1.000000
1.000000
1.000000
1.000000
1.000000
1.000000
1.000000
1.000000
1.000000
1.000000
1.000000
1.000000
1.000000
1.000000
1.000000
1.000000
1.000000
1.000000
1.000000
VECTORS v double
-14.387302 0.000000 0.638621
-5.317098 0.000000 0.638621
-5.677056 0.000000 0.638621
1.619882 0.000000 0.638621
-2.499667 0.000000 0.638621
2.575496 0.000000 0.638621
-2.304456 0.000000 0.638621
0.350669 0.000000 0.638621
4.088905 0.000000 0.638621
1.550591 0.000000 0.638621
-14.387302 0.000000 0.638621
-5.317098 0.000000 0.638621
-5.677056 0.000000 0.638621
1.619882 0.000000 0.638621
-2.499667 0.000000 0.638621
2.575496 0.000000 0.638621
-2.304456 0.000000 0.638621
0.350669 0.000000 0.638621
4.088905 0.000000 0.638621
1.550591 0.000000 0.638621
-14.387302 0.000000 0.638621
-5.317098 0.000000 0.638621
-5.677056 0.000000 0.638621
1.619882 0.000000 0.638621
-2.499667 0.000000 0.638621
2.575496 0.000000 0.638621
-2.304456 0.000000 0.638621
0.350669 0.000000 0.638621
4.088905 0.000000 0.638621
1.550591 0.000000 0.638621
-14.387302 0.000000 0.638621
-5.317098 0.000000 0.638621
-5.677056 0.000000 0.638621
1.619882 0.000000 0.638621
-2.499667 0.000000 0.638621
2.575496 0.000000 0.638621
-2.304456 0.000000 0.638621
0.350669 0.000000 0.638621
4.088905 0.000000 0.638621
1.550591 0.000000 0.638621
-14.387302 0.000000 0.638621
-5.317098 0.000000 0.638621
-5.677056 0.000000 0.638621
1.619882 0.000000 0.638621
-2.499667 0.000000 0.638621
2.575496 0.000000 0.638621
-2.304456 0.000000 0.638621
0.350669 0.000000 0.638621
4.088905 0.000000 0.638621
1.550591 0.000000 0.638621
-14.387302 0.000000 0.638621
-5.317098 0.000000 0.638621
-5.677056 0.000000 0.638621
1.619882 0.000000 0.638621
-2.499667 0.000000 0.638621
2.575496 0.000000 0.638621
-2.304456 0.000000 0.638621
0.350669 0.000000 0.638621
4.088905 0.000000 0.638621
1.550591 0.000000 0.638621
-14.387302 0.000000 0.638621
-5.317098 0.000000 0.638621
-5.677056 0.000000 0.638621
1.619882 0.000000 0.638621
-2.499667 0.000000 0.638621
2.575496 0.000000 0.638621
-2.304456 0.000000 0.638621
0.350669 0.000000 0.638621
4.088905 0.000000 0.638621
1.550591 0.000000 0.638621
-14.387302 0.000000 0.638621
-5.317098 0.000000 0.638621
-5.677056 0.000000 0.638621
1.619882 0.000000 0.638621
-2.499667 0.000000 0.638621
2.575496 0.000000 0.638621
-2.304456 0.000000 0.638621
0.350669 0.000000 0.638621
4.088905 0.000000 0.638621
1.550591 0.000000 0.638621
-14.387302 0.000000 0.638621
-5.317098 0.000000 0.638621
-5.677056 0.000000 0.638621
1.619882 0.000000 0.638621
-2.499667 0.000000 0.638621
2.575496 0.000000 0.638621
-2.304456 0.000000 0.638621
0.350669 0.000000 0.638621
4.088905 0.000000 0.638621
1.550591 0.000000 0.638621
