# vtk DataFile Version 4.0
hesp visualization file
ASCII
DATASET UNSTRUCTURED_GRID
POINTS 90 double
0.825616 1.000000 9.037210
1.968002 1.000000 9.037210
2.989670 1.000000 9.037210
3.957130 1.000000 9.037210
4.930716 1.000000 9.037210
5.833837 1.000000 9.037210
6.768048 1.000000 9.037210
7.668484 1.000000 9.037210
8.640227 1.000000 9.037210
9.676303 1.000000 9.037210
0.825616 2.000000 9.037210
1.968002 2.000000 9.037210
2.989670 2.000000 9.037210
3.957130 2.000000 9.037210
4.930716 2.000000 9.037210
5.833837 2.000000 9.037210
6.768048 2.000000 9.037210
7.668484 2.000000 9.037210
8.640227 2.000000 9.037210
9.676303 2.000000 9.037210
0.825616 3.000000 9.037210
1.968002 3.000000 9.037210
2.989670 3.000000 9.037210
3.957130 3.000000 9.037210
4.930716 3.000000 9.037210
5.833837 3.000000 9.037210
6.768048 3.000000 9.037210
7.668484 3.000000 9.037210
8.640227 3.000000 9.037210
9.676303 3.000000 9.037210
0.825616 4.000000 9.037210
1.968002 4.000000 9.037210
2.989670 4.000000 9.037210
3.957130 4.000000 9.037210
4.930716 4.000000 9.037210
5.833837 4.000000 9.037210
6.768048 4.000000 9.037210
7.668484 4.000000 9.037210
8.640227 4.000000 9.037210
9.676303 4.000000 9.037210
0.825616 5.000000 9.037210
1.968002 5.000000 9.037210
2.989670 5.000000 9.037210
3.957130 5.000000 9.037210
4.930716 5.000000 9.037210
5.833837 5.000000 9.037210
6.768048 5.000000 9.037210
7.668484 5.000000 9.037210
8.640227 5.000000 9.037210
9.676303 5.000000 9.037210
0.825616 6.000000 9.037210
1.968002 6.000000 9.037210
2.989670 6.000000 9.037210
3.957130 6.000000 9.037210
4.930716 6.000000 9.037210
5.833837 6.000000 9.037210
6.768048 6.000000 9.037210
7.668484 6.000000 9.037210
8.640227 6.000000 9.037210
9.676303 6.000000 9.037210
0.825616 7.000000 9.037210
1.968002 7.000000 9.037210
2.989670 7.000000 9.037210
3.957130 7.000000 9.037210
4.930716 7.000000 9.037210
5.833837 7.000000 9.037210
6.768048 7.000000 9.037210
7.668484 7.000000 9.037210
8.640227 7.000000 9.037210
9.676303 7.000000 9.037210
0.825616 8.000000 9.037210
1.968002 8.000000 9.037210
2.989670 8.000000 9.037210
3.957130 8.000000 9.037210
4.930716 8.000000 9.037210
5.833837 8.000000 9.037210
6.768048 8.000000 9.037210
7.668484 8.000000 9.037210
8.640227 8.000000 9.037210
9.676303 8.000000 9.037210
0.825616 9.000000 9.037210
1.968002 9.000000 9.037210
2.989670 9.000000 9.037210
3.957130 9.000000 9.037210
4.930716 9.000000 9.037210
5.833837 9.000000 9.037210
6.768048 9.000000 9.037210
7.668484 9.000000 9.037210
8.640227 9.000000 9.037210
9.676303 9.000000 9.037210
CELLS 0 0
CELL_TYPES 0
POINT_DATA 90
SCALARS m double
LOOKUP_TABLE default
1.000000
1.000000
1.000000
1.000000
1.000000
1.000000
1.000000
1.000000
1.000000
1.000000
1.000000
1.000000
1.000000
1.000000
1.000000
1.000000
1.000000
1.000000
1.000000
1.000000
1.000000
1.000000
1.000000
1.000000
1.000000
1.000000
1.000000
1.000000
1.000000
1.000000
1.000000
1.000000
1.000000
1.000000
1.000000
1.000000
1.000000
1.000000
1.000000
1.000000
1.000000
1.000000
1.000000
1.000000
1.000000
1.000000
1.000000
1.000000
1.000000
1.000000
1.000000
1.000000
1.000000
1.000000
1.000000
1.000000
1.000000
1.000000
1.000000
1.000000
1.000000
1.000000
1.000000
1.000000
1.000000
1.000000
1.000000
1.000000
1.000000
1.000000
1.000000
1.000000
1.000000
1.000000
1.000000
1.000000
1.000000
1.000000
1.000000
1.000000
1.000000
1.000000
1.000000
1.000000
1.000000
1.000000
1.000000
1.000000
1.000000
1.000000
VECTORS v double
-14.387302 0.000000 0.854435
-11.721501 0.000000 0.854435
-7.764092 0.000000 0.854435
-8.827062 0.000000 0.854435
-2.200544 0.000000 0.854435
-1.835751 0.000000 0.854435
0.822675 0.000000 0.854435
5.474414 0.000000 0.854435
5.676030 0.000000 0.854435
14.763111 0.000000 0.854435
-14.387302 0.000000 0.854435
-11.721501 0.000000 0.854435
-7.764092 0.000000 0.854435
-8.827062 0.000000 0.854435
-2.200544 0.000000 0.854435
-1.835751 0.000000 0.854435
0.822675 0.000000 0.854435
5.474414 0.000000 0.854435
5.676030 0.000000 0.854435
14.763111 0.000000 0.854435
-14.387302 0.000000 0.854435
-11.721501 0.000000 0.854435
-7.764092 0.000000 0.854435
-8.827062 0.000000 0.854435
-2.200544 0.000000 0.854435
-1.835751 0.000000 0.854435
0.822675 0.000000 0.854435
5.474414 0.000000 0.854435
5.676030 0.000000 0.854435
14.763111 0.000000 0.854435
-14.387302 0.000000 0.854435
-11.721501 0.000000 0.854435
-7.764092 0.000000 0.854435
-8.827062 0.000000 0.854435
-2.200544 0.000000 0.854435
-1.835751 0.000000 0.854435
0.822675 0.000000 0.854435
5.474414 0.000000 0.854435
5.676030 0.000000 0.854435
14.763111 0.000000 0.854435
-14.387302 0.000000 0.854435
-11.721501 0.000000 0.854435
-7.764092 0.000000 0.854435
-8.827062 0.000000 0.854435
-2.200544 0.000000 0.854435
-1.835751 0.000000 0.854435
0.822675 0.000000 0.854435
5.474414 0.000000 0.854435
5.676030 0.000000 0.854435
14.763111 0.000000 0.854435
-14.387302 0.000000 0.854435
-11.721501 0.000000 0.854435
-7.764092 0.000000 0.854435
-8.827062 0.000000 0.854435
-2.200544 0.000000 0.854435
-1.835751 0.000000 0.854435
0.822675 0.000000 0.854435
5.474414 0.000000 0.854435
5.676030 0.000000 0.854435
14.763111 0.000000 0.854435
-14.387302 0.000000 0.854435
-11.721501 0.000000 0.854435
-7.764092 0.000000 0.854435
-8.827062 0.000000 0.854435
-2.200544 0.000000 0.854435
-1.835751 0.000000 0.854435
0.822675 0.000000 0.854435
5.474414 0.000000 0.854435
5.676030 0.000000 0.854435
14.763111 0.000000 0.854435
-14.387302 0.000000 0.854435
-11.721501 0.000000 0.854435
-7.764092 0.000000 0.854435
-8.827062 0.000000 0.854435
-2.200544 0.000000 0.854435
-1.835751 0.000000 0.854435
0.822675 0.000000 0.854435
5.474414 0.000000 0.854435
5.676030 0.000000 0.854435
14.763111 0.000000 0.854435
-14.387302 0.000000 0.854435
-11.721501 0.000000 0.854435
-7.764092 0.000000 0.854435
-8.827062 0.000000 0.854435
-2.200544 0.000000 0.854435
-1.835751 0.000000 0.854435
0.822675 0.000000 0.854435
5.474414 0.000000 0.854435
5.676030 0.000000 0.854435
14.763111 0.000000 0.854435
