# vtk DataFile Version 4.0
hesp visualization file
ASCII
DATASET UNSTRUCTURED_GRID
POINTS 90 double
1.269251 1.000000 9.015436
2.213208 1.000000 9.015436
3.159686 1.000000 9.015436
4.038591 1.000000 9.015436
4.960822 1.000000 9.015436
5.836359 1.000000 9.015436
6.764971 1.000000 9.015436
7.647103 1.000000 9.015436
8.523256 1.000000 9.015436
9.464791 1.000000 9.015436
1.269251 2.000000 9.015436
2.213208 2.000000 9.015436
3.159686 2.000000 9.015436
4.038591 2.000000 9.015436
4.960822 2.000000 9.015436
5.836359 2.000000 9.015436
6.764971 2.000000 9.015436
7.647103 2.000000 9.015436
8.523256 2.000000 9.015436
9.464791 2.000000 9.015436
1.269251 3.000000 9.015436
2.213208 3.000000 9.015436
3.159686 3.000000 9.015436
4.038591 3.000000 9.015436
4.960822 3.000000 9.015436
5.836359 3.000000 9.015436
6.764971 3.000000 9.015436
7.647103 3.000000 9.015436
8.523256 3.000000 9.015436
9.464791 3.000000 9.015436
1.269251 4.000000 9.015436
2.213208 4.000000 9.015436
3.159686 4.000000 9.015436
4.038591 4.000000 9.015436
4.960822 4.000000 9.015436
5.836359 4.000000 9.015436
6.764971 4.000000 9.015436
7.647103 4.000000 9.015436
8.523256 4.000000 9.015436
9.464791 4.000000 9.015436
1.269251 5.000000 9.015436
2.213208 5.000000 9.015436
3.159686 5.000000 9.015436
4.038591 5.000000 9.015436
4.960822 5.000000 9.015436
5.836359 5.000000 9.015436
6.764971 5.000000 9.015436
7.647103 5.000000 9.015436
8.523256 5.000000 9.015436
9.464791 5.000000 9.015436
1.269251 6.000000 9.015436
2.213208 6.000000 9.015436
3.159686 6.000000 9.015436
4.038591 6.000000 9.015436
4.960822 6.000000 9.015436
5.836359 6.000000 9.015436
6.764971 6.000000 9.015436
7.647103 6.000000 9.015436
8.523256 6.000000 9.015436
9.464791 6.000000 9.015436
1.269251 7.000000 9.015436
2.213208 7.000000 9.015436
3.159686 7.000000 9.015436
4.038591 7.000000 9.015436
4.960822 7.000000 9.015436
5.836359 7.000000 9.015436
6.764971 7.000000 9.015436
7.647103 7.000000 9.015436
8.523256 7.000000 9.015436
9.464791 7.000000 9.015436
1.269251 8.000000 9.015436
2.213208 8.000000 9.015436
3.159686 8.000000 9.015436
4.038591 8.000000 9.015436
4.960822 8.000000 9.015436
5.836359 8.000000 9.015436
6.764971 8.000000 9.015436
7.647103 8.000000 9.015436
8.523256 8.000000 9.015436
9.464791 8.000000 9.015436
1.269251 9.000000 9.015436
2.213208 9.000000 9.015436
3.159686 9.000000 9.015436
4.038591 9.000000 9.015436
4.960822 9.000000 9.015436
5.836359 9.000000 9.015436
6.764971 9.000000 9.015436
7.647103 9.000000 9.015436
8.523256 9.000000 9.015436
9.464791 9.000000 9.015436
CELLS 0 0
CELL_TYPES 0
POINT_DATA 90
SCALARS m double
LOOKUP_TABLE default
1.000000
1.000000
1.000000
1.000000
1.000000
1.000000
1.000000
1.000000
1.000000
1.000000
1.000000
1.000000
1.000000
1.000000
1.000000
1.000000
1.000000
1.000000
1.000000
1.000000
1.000000
1.000000
1.000000
1.000000
1.000000
1.000000
1.000000
1.000000
1.000000
1.000000
1.000000
1.000000
1.000000
1.000000
1.000000
1.000000
1.000000
1.000000
1.000000
1.000000
1.000000
1.000000
1.000000
1.000000
1.000000
1.000000
1.000000
1.000000
1.000000
1.000000
1.000000
1.000000
1.000000
1.000000
1.000000
1.000000
1.000000
1.000000
1.000000
1.000000
1.000000
1.000000
1.000000
1.000000
1.000000
1.000000
1.000000
1.000000
1.000000
1.000000
1.000000
1.000000
1.000000
1.000000
1.000000
1.000000
1.000000
1.000000
1.000000
1.000000
1.000000
1.000000
1.000000
1.000000
1.000000
1.000000
1.000000
1.000000
1.000000
1.000000
VECTORS v double
-12.955355 0.000000 0.550333
-2.111151 0.000000 0.550333
-0.196201 0.000000 0.550333
-1.576336 0.000000 0.550333
1.430090 0.000000 0.550333
-0.616161 0.000000 0.550333
-1.391421 0.000000 0.550333
3.512384 0.000000 0.550333
-0.414260 0.000000 0.550333
-5.681625 0.000000 0.550333
-12.955355 0.000000 0.550333
-2.111151 0.000000 0.550333
-0.196201 0.000000 0.550333
-1.576336 0.000000 0.550333
1.430090 0.000000 0.550333
-0.616161 0.000000 0.550333
-1.391421 0.000000 0.550333
3.512384 0.000000 0.550333
-0.414260 0.000000 0.550333
-5.681625 0.000000 0.550333
-12.955355 0.000000 0.550333
-2.111151 0.000000 0.550333
-0.196201 0.000000 0.550333
-1.576336 0.000000 0.550333
1.430090 0.000000 0.550333
-0.616161 0.000000 0.550333
-1.391421 0.000000 0.550333
3.512384 0.000000 0.550333
-0.414260 0.000000 0.550333
-5.681625 0.000000 0.550333
-12.955355 0.000000 0.550333
-2.111151 0.000000 0.550333
-0.196201 0.000000 0.550333
-1.576336 0.000000 0.550333
1.430090 0.000000 0.550333
-0.616161 0.000000 0.550333
-1.391421 0.000000 0.550333
3.512384 0.000000 0.550333
-0.414260 0.000000 0.550333
-5.681625 0.000000 0.550333
-12.955355 0.000000 0.550333
-2.111151 0.000000 0.550333
-0.196201 0.000000 0.550333
-1.576336 0.000000 0.550333
1.430090 0.000000 0.550333
-0.616161 0.000000 0.550333
-1.391421 0.000000 0.550333
3.512384 0.000000 0.550333
-0.414260 0.000000 0.550333
-5.681625 0.000000 0.550333
-12.955355 0.000000 0.550333
-2.111151 0.000000 0.550333
-0.196201 0.000000 0.550333
-1.576336 0.000000 0.550333
1.430090 0.000000 0.550333
-0.616161 0.000000 0.550333
-1.391421 0.000000 0.550333
3.512384 0.000000 0.550333
-0.414260 0.000000 0.550333
-5.681625 0.000000 0.550333
-12.955355 0.000000 0.550333
-2.111151 0.000000 0.550333
-0.196201 0.000000 0.550333
-1.576336 0.000000 0.550333
1.430090 0.000000 0.550333
-0.616161 0.000000 0.550333
-1.391421 0.000000 0.550333
3.512384 0.000000 0.550333
-0.414260 0.000000 0.550333
-5.681625 0.000000 0.550333
-12.955355 0.000000 0.550333
-2.111151 0.000000 0.550333
-0.196201 0.000000 0.550333
-1.576336 0.000000 0.550333
1.430090 0.000000 0.550333
-0.616161 0.000000 0.550333
-1.391421 0.000000 0.550333
3.512384 0.000000 0.550333
-0.414260 0.000000 0.550333
-5.681625 0.000000 0.550333
-12.955355 0.000000 0.550333
-2.111151 0.000000 0.550333
-0.196201 0.000000 0.550333
-1.576336 0.000000 0.550333
1.430090 0.000000 0.550333
-0.616161 0.000000 0.550333
-1.391421 0.000000 0.550333
3.512384 0.000000 0.550333
-0.414260 0.000000 0.550333
-5.681625 0.000000 0.550333
