# vtk DataFile Version 4.0
hesp visualization file
ASCII
DATASET UNSTRUCTURED_GRID
POINTS 90 double
1.340638 1.000000 9.011824
2.232263 1.000000 9.011824
3.148221 1.000000 9.011824
4.055907 1.000000 9.011824
4.944006 1.000000 9.011824
5.850974 1.000000 9.011824
6.761629 1.000000 9.011824
7.626301 1.000000 9.011824
8.542194 1.000000 9.011824
9.515912 1.000000 9.011824
1.340638 2.000000 9.011824
2.232263 2.000000 9.011824
3.148221 2.000000 9.011824
4.055907 2.000000 9.011824
4.944006 2.000000 9.011824
5.850974 2.000000 9.011824
6.761629 2.000000 9.011824
7.626301 2.000000 9.011824
8.542194 2.000000 9.011824
9.515912 2.000000 9.011824
1.340638 3.000000 9.011824
2.232263 3.000000 9.011824
3.148221 3.000000 9.011824
4.055907 3.000000 9.011824
4.944006 3.000000 9.011824
5.850974 3.000000 9.011824
6.761629 3.000000 9.011824
7.626301 3.000000 9.011824
8.542194 3.000000 9.011824
9.515912 3.000000 9.011824
1.340638 4.000000 9.011824
2.232263 4.000000 9.011824
3.148221 4.000000 9.011824
4.055907 4.000000 9.011824
4.944006 4.000000 9.011824
5.850974 4.000000 9.011824
6.761629 4.000000 9.011824
7.626301 4.000000 9.011824
8.542194 4.000000 9.011824
9.515912 4.000000 9.011824
1.340638 5.000000 9.011824
2.232263 5.000000 9.011824
3.148221 5.000000 9.011824
4.055907 5.000000 9.011824
4.944006 5.000000 9.011824
5.850974 5.000000 9.011824
6.761629 5.000000 9.011824
7.626301 5.000000 9.011824
8.542194 5.000000 9.011824
9.515912 5.000000 9.011824
1.340638 6.000000 9.011824
2.232263 6.000000 9.011824
3.148221 6.000000 9.011824
4.055907 6.000000 9.011824
4.944006 6.000000 9.011824
5.850974 6.000000 9.011824
6.761629 6.000000 9.011824
7.626301 6.000000 9.011824
8.542194 6.000000 9.011824
9.515912 6.000000 9.011824
1.340638 7.000000 9.011824
2.232263 7.000000 9.011824
3.148221 7.000000 9.011824
4.055907 7.000000 9.011824
4.944006 7.000000 9.011824
5.850974 7.000000 9.011824
6.761629 7.000000 9.011824
7.626301 7.000000 9.011824
8.542194 7.000000 9.011824
9.515912 7.000000 9.011824
1.340638 8.000000 9.011824
2.232263 8.000000 9.011824
3.148221 8.000000 9.011824
4.055907 8.000000 9.011824
4.944006 8.000000 9.011824
5.850974 8.000000 9.011824
6.761629 8.000000 9.011824
7.626301 8.000000 9.011824
8.542194 8.000000 9.011824
9.515912 8.000000 9.011824
1.340638 9.000000 9.011824
2.232263 9.000000 9.011824
3.148221 9.000000 9.011824
4.055907 9.000000 9.011824
4.944006 9.000000 9.011824
5.850974 9.000000 9.011824
6.761629 9.000000 9.011824
7.626301 9.000000 9.011824
8.542194 9.000000 9.011824
9.515912 9.000000 9.011824
CELLS 0 0
CELL_TYPES 0
POINT_DATA 90
SCALARS m double
LOOKUP_TABLE default
1.000000
1.000000
1.000000
1.000000
1.000000
1.000000
1.000000
1.000000
1.000000
1.000000
1.000000
1.000000
1.000000
1.000000
1.000000
1.000000
1.000000
1.000000
1.000000
1.000000
1.000000
1.000000
1.000000
1.000000
1.000000
1.000000
1.000000
1.000000
1.000000
1.000000
1.000000
1.000000
1.000000
1.000000
1.000000
1.000000
1.000000
1.000000
1.000000
1.000000
1.000000
1.000000
1.000000
1.000000
1.000000
1.000000
1.000000
1.000000
1.000000
1.000000
1.000000
1.000000
1.000000
1.000000
1.000000
1.000000
1.000000
1.000000
1.000000
1.000000
1.000000
1.000000
1.000000
1.000000
1.000000
1.000000
1.000000
1.000000
1.000000
1.000000
1.000000
1.000000
1.000000
1.000000
1.000000
1.000000
1.000000
1.000000
1.000000
1.000000
1.000000
1.000000
1.000000
1.000000
1.000000
1.000000
1.000000
1.000000
1.000000
1.000000
VECTORS v double
-6.832181 0.000000 0.481665
-3.576143 0.000000 0.481665
2.753271 0.000000 0.481665
-2.604127 0.000000 0.481665
2.578466 0.000000 0.481665
-2.955001 0.000000 0.481665
2.326799 0.000000 0.481665
1.755041 0.000000 0.481665
-4.898600 0.000000 0.481665
-8.547559 0.000000 0.481665
-6.832181 0.000000 0.481665
-3.576143 0.000000 0.481665
2.753271 0.000000 0.481665
-2.604127 0.000000 0.481665
2.578466 0.000000 0.481665
-2.955001 0.000000 0.481665
2.326799 0.000000 0.481665
1.755041 0.000000 0.481665
-4.898600 0.000000 0.481665
-8.547559 0.000000 0.481665
-6.832181 0.000000 0.481665
-3.576143 0.000000 0.481665
2.753271 0.000000 0.481665
-2.604127 0.000000 0.481665
2.578466 0.000000 0.481665
-2.955001 0.000000 0.481665
2.326799 0.000000 0.481665
1.755041 0.000000 0.481665
-4.898600 0.000000 0.481665
-8.547559 0.000000 0.481665
-6.832181 0.000000 0.481665
-3.576143 0.000000 0.481665
2.753271 0.000000 0.481665
-2.604127 0.000000 0.481665
2.578466 0.000000 0.481665
-2.955001 0.000000 0.481665
2.326799 0.000000 0.481665
1.755041 0.000000 0.481665
-4.898600 0.000000 0.481665
-8.547559 0.000000 0.481665
-6.832181 0.000000 0.481665
-3.576143 0.000000 0.481665
2.753271 0.000000 0.481665
-2.604127 0.000000 0.481665
2.578466 0.000000 0.481665
-2.955001 0.000000 0.481665
2.326799 0.000000 0.481665
1.755041 0.000000 0.481665
-4.898600 0.000000 0.481665
-8.547559 0.000000 0.481665
-6.832181 0.000000 0.481665
-3.576143 0.000000 0.481665
2.753271 0.000000 0.481665
-2.604127 0.000000 0.481665
2.578466 0.000000 0.481665
-2.955001 0.000000 0.481665
2.326799 0.000000 0.481665
1.755041 0.000000 0.481665
-4.898600 0.000000 0.481665
-8.547559 0.000000 0.481665
-6.832181 0.000000 0.481665
-3.576143 0.000000 0.481665
2.753271 0.000000 0.481665
-2.604127 0.000000 0.481665
2.578466 0.000000 0.481665
-2.955001 0.000000 0.481665
2.326799 0.000000 0.481665
1.755041 0.000000 0.481665
-4.898600 0.000000 0.481665
-8.547559 0.000000 0.481665
-6.832181 0.000000 0.481665
-3.576143 0.000000 0.481665
2.753271 0.000000 0.481665
-2.604127 0.000000 0.481665
2.578466 0.000000 0.481665
-2.955001 0.000000 0.481665
2.326799 0.000000 0.481665
1.755041 0.000000 0.481665
-4.898600 0.000000 0.481665
-8.547559 0.000000 0.481665
-6.832181 0.000000 0.481665
-3.576143 0.000000 0.481665
2.753271 0.000000 0.481665
-2.604127 0.000000 0.481665
2.578466 0.000000 0.481665
-2.955001 0.000000 0.481665
2.326799 0.000000 0.481665
1.755041 0.000000 0.481665
-4.898600 0.000000 0.481665
-8.547559 0.000000 0.481665
