# vtk DataFile Version 4.0
hesp visualization file
ASCII
DATASET UNSTRUCTURED_GRID
POINTS 90 double
1.240120 1.000000 9.002849
2.230974 1.000000 9.002849
3.174231 1.000000 9.002849
4.036882 1.000000 9.002849
4.963119 1.000000 9.002849
5.825768 1.000000 9.002849
6.769025 1.000000 9.002849
7.759819 1.000000 9.002849
8.759056 1.000000 9.002849
9.759042 1.000000 9.002849
1.240120 2.000000 9.002849
2.230974 2.000000 9.002849
3.174231 2.000000 9.002849
4.036882 2.000000 9.002849
4.963119 2.000000 9.002849
5.825768 2.000000 9.002849
6.769025 2.000000 9.002849
7.759819 2.000000 9.002849
8.759056 2.000000 9.002849
9.759042 2.000000 9.002849
1.240120 3.000000 9.002849
2.230974 3.000000 9.002849
3.174231 3.000000 9.002849
4.036882 3.000000 9.002849
4.963119 3.000000 9.002849
5.825768 3.000000 9.002849
6.769025 3.000000 9.002849
7.759819 3.000000 9.002849
8.759056 3.000000 9.002849
9.759042 3.000000 9.002849
1.240120 4.000000 9.002849
2.230974 4.000000 9.002849
3.174231 4.000000 9.002849
4.036882 4.000000 9.002849
4.963119 4.000000 9.002849
5.825768 4.000000 9.002849
6.769025 4.000000 9.002849
7.759819 4.000000 9.002849
8.759056 4.000000 9.002849
9.759042 4.000000 9.002849
1.240120 5.000000 9.002849
2.230974 5.000000 9.002849
3.174231 5.000000 9.002849
4.036882 5.000000 9.002849
4.963119 5.000000 9.002849
5.825768 5.000000 9.002849
6.769025 5.000000 9.002849
7.759819 5.000000 9.002849
8.759056 5.000000 9.002849
9.759042 5.000000 9.002849
1.240120 6.000000 9.002849
2.230974 6.000000 9.002849
3.174231 6.000000 9.002849
4.036882 6.000000 9.002849
4.963119 6.000000 9.002849
5.825768 6.000000 9.002849
6.769025 6.000000 9.002849
7.759819 6.000000 9.002849
8.759056 6.000000 9.002849
9.759042 6.000000 9.002849
1.240120 7.000000 9.002849
2.230974 7.000000 9.002849
3.174231 7.000000 9.002849
4.036882 7.000000 9.002849
4.963119 7.000000 9.002849
5.825768 7.000000 9.002849
6.769025 7.000000 9.002849
7.759819 7.000000 9.002849
8.759056 7.000000 9.002849
9.759042 7.000000 9.002849
1.240120 8.000000 9.002849
2.230974 8.000000 9.002849
3.174231 8.000000 9.002849
4.036882 8.000000 9.002849
4.963119 8.000000 9.002849
5.825768 8.000000 9.002849
6.769025 8.000000 9.002849
7.759819 8.000000 9.002849
8.759056 8.000000 9.002849
9.759042 8.000000 9.002849
1.240120 9.000000 9.002849
2.230974 9.000000 9.002849
3.174231 9.000000 9.002849
4.036882 9.000000 9.002849
4.963119 9.000000 9.002849
5.825768 9.000000 9.002849
6.769025 9.000000 9.002849
7.759819 9.000000 9.002849
8.759056 9.000000 9.002849
9.759042 9.000000 9.002849
CELLS 0 0
CELL_TYPES 0
POINT_DATA 90
SCALARS m double
LOOKUP_TABLE default
1.000000
1.000000
1.000000
1.000000
1.000000
1.000000
1.000000
1.000000
1.000000
1.000000
1.000000
1.000000
1.000000
1.000000
1.000000
1.000000
1.000000
1.000000
1.000000
1.000000
1.000000
1.000000
1.000000
1.000000
1.000000
1.000000
1.000000
1.000000
1.000000
1.000000
1.000000
1.000000
1.000000
1.000000
1.000000
1.000000
1.000000
1.000000
1.000000
1.000000
1.000000
1.000000
1.000000
1.000000
1.000000
1.000000
1.000000
1.000000
1.000000
1.000000
1.000000
1.000000
1.000000
1.000000
1.000000
1.000000
1.000000
1.000000
1.000000
1.000000
1.000000
1.000000
1.000000
1.000000
1.000000
1.000000
1.000000
1.000000
1.000000
1.000000
1.000000
1.000000
1.000000
1.000000
1.000000
1.000000
1.000000
1.000000
1.000000
1.000000
1.000000
1.000000
1.000000
1.000000
1.000000
1.000000
1.000000
1.000000
1.000000
1.000000
VECTORS v double
9.697073 0.000000 0.236422
7.516556 0.000000 0.236422
-0.185670 0.000000 0.236422
-2.461722 0.000000 0.236422
2.461771 0.000000 0.236422
0.185921 0.000000 0.236422
-7.518771 0.000000 0.236422
-9.715752 0.000000 0.236422
-9.980959 0.000000 0.236422
-9.998504 0.000000 0.236422
9.697073 0.000000 0.236422
7.516556 0.000000 0.236422
-0.185670 0.000000 0.236422
-2.461722 0.000000 0.236422
2.461771 0.000000 0.236422
0.185921 0.000000 0.236422
-7.518771 0.000000 0.236422
-9.715752 0.000000 0.236422
-9.980959 0.000000 0.236422
-9.998504 0.000000 0.236422
9.697073 0.000000 0.236422
7.516556 0.000000 0.236422
-0.185670 0.000000 0.236422
-2.461722 0.000000 0.236422
2.461771 0.000000 0.236422
0.185921 0.000000 0.236422
-7.518771 0.000000 0.236422
-9.715752 0.000000 0.236422
-9.980959 0.000000 0.236422
-9.998504 0.000000 0.236422
9.697073 0.000000 0.236422
7.516556 0.000000 0.236422
-0.185670 0.000000 0.236422
-2.461722 0.000000 0.236422
2.461771 0.000000 0.236422
0.185921 0.000000 0.236422
-7.518771 0.000000 0.236422
-9.715752 0.000000 0.236422
-9.980959 0.000000 0.236422
-9.998504 0.000000 0.236422
9.697073 0.000000 0.236422
7.516556 0.000000 0.236422
-0.185670 0.000000 0.236422
-2.461722 0.000000 0.236422
2.461771 0.000000 0.236422
0.185921 0.000000 0.236422
-7.518771 0.000000 0.236422
-9.715752 0.000000 0.236422
-9.980959 0.000000 0.236422
-9.998504 0.000000 0.236422
9.697073 0.000000 0.236422
7.516556 0.000000 0.236422
-0.185670 0.000000 0.236422
-2.461722 0.000000 0.236422
2.461771 0.000000 0.236422
0.185921 0.000000 0.236422
-7.518771 0.000000 0.236422
-9.715752 0.000000 0.236422
-9.980959 0.000000 0.236422
-9.998504 0.000000 0.236422
9.697073 0.000000 0.236422
7.516556 0.000000 0.236422
-0.185670 0.000000 0.236422
-2.461722 0.000000 0.236422
2.461771 0.000000 0.236422
0.185921 0.000000 0.236422
-7.518771 0.000000 0.236422
-9.715752 0.000000 0.236422
-9.980959 0.000000 0.236422
-9.998504 0.000000 0.236422
9.697073 0.000000 0.236422
7.516556 0.000000 0.236422
-0.185670 0.000000 0.236422
-2.461722 0.000000 0.236422
2.461771 0.000000 0.236422
0.185921 0.000000 0.236422
-7.518771 0.000000 0.236422
-9.715752 0.000000 0.236422
-9.980959 0.000000 0.236422
-9.998504 0.000000 0.236422
9.697073 0.000000 0.236422
7.516556 0.000000 0.236422
-0.185670 0.000000 0.236422
-2.461722 0.000000 0.236422
2.461771 0.000000 0.236422
0.185921 0.000000 0.236422
-7.518771 0.000000 0.236422
-9.715752 0.000000 0.236422
-9.980959 0.000000 0.236422
-9.998504 0.000000 0.236422
