# vtk DataFile Version 4.0
hesp visualization file
ASCII
DATASET UNSTRUCTURED_GRID
POINTS 90 double
1.031001 1.000000 9.000047
2.030998 1.000000 9.000047
3.030996 1.000000 9.000047
4.030111 1.000000 9.000047
4.969889 1.000000 9.000047
5.969004 1.000000 9.000047
6.969002 1.000000 9.000047
7.969002 1.000000 9.000047
8.968987 1.000000 9.000047
9.968987 1.000000 9.000047
1.031001 2.000000 9.000047
2.030998 2.000000 9.000047
3.030996 2.000000 9.000047
4.030111 2.000000 9.000047
4.969889 2.000000 9.000047
5.969004 2.000000 9.000047
6.969002 2.000000 9.000047
7.969002 2.000000 9.000047
8.968987 2.000000 9.000047
9.968987 2.000000 9.000047
1.031001 3.000000 9.000047
2.030998 3.000000 9.000047
3.030996 3.000000 9.000047
4.030111 3.000000 9.000047
4.969889 3.000000 9.000047
5.969004 3.000000 9.000047
6.969002 3.000000 9.000047
7.969002 3.000000 9.000047
8.968987 3.000000 9.000047
9.968987 3.000000 9.000047
1.031001 4.000000 9.000047
2.030998 4.000000 9.000047
3.030996 4.000000 9.000047
4.030111 4.000000 9.000047
4.969889 4.000000 9.000047
5.969004 4.000000 9.000047
6.969002 4.000000 9.000047
7.969002 4.000000 9.000047
8.968987 4.000000 9.000047
9.968987 4.000000 9.000047
1.031001 5.000000 9.000047
2.030998 5.000000 9.000047
3.030996 5.000000 9.000047
4.030111 5.000000 9.000047
4.969889 5.000000 9.000047
5.969004 5.000000 9.000047
6.969002 5.000000 9.000047
7.969002 5.000000 9.000047
8.968987 5.000000 9.000047
9.968987 5.000000 9.000047
1.031001 6.000000 9.000047
2.030998 6.000000 9.000047
3.030996 6.000000 9.000047
4.030111 6.000000 9.000047
4.969889 6.000000 9.000047
5.969004 6.000000 9.000047
6.969002 6.000000 9.000047
7.969002 6.000000 9.000047
8.968987 6.000000 9.000047
9.968987 6.000000 9.000047
1.031001 7.000000 9.000047
2.030998 7.000000 9.000047
3.030996 7.000000 9.000047
4.030111 7.000000 9.000047
4.969889 7.000000 9.000047
5.969004 7.000000 9.000047
6.969002 7.000000 9.000047
7.969002 7.000000 9.000047
8.968987 7.000000 9.000047
9.968987 7.000000 9.000047
1.031001 8.000000 9.000047
2.030998 8.000000 9.000047
3.030996 8.000000 9.000047
4.030111 8.000000 9.000047
4.969889 8.000000 9.000047
5.969004 8.000000 9.000047
6.969002 8.000000 9.000047
7.969002 8.000000 9.000047
8.968987 8.000000 9.000047
9.968987 8.000000 9.000047
1.031001 9.000000 9.000047
2.030998 9.000000 9.000047
3.030996 9.000000 9.000047
4.030111 9.000000 9.000047
4.969889 9.000000 9.000047
5.969004 9.000000 9.000047
6.969002 9.000000 9.000047
7.969002 9.000000 9.000047
8.968987 9.000000 9.000047
9.968987 9.000000 9.000047
CELLS 0 0
CELL_TYPES 0
POINT_DATA 90
SCALARS m double
LOOKUP_TABLE default
1.000000
1.000000
1.000000
1.000000
1.000000
1.000000
1.000000
1.000000
1.000000
1.000000
1.000000
1.000000
1.000000
1.000000
1.000000
1.000000
1.000000
1.000000
1.000000
1.000000
1.000000
1.000000
1.000000
1.000000
1.000000
1.000000
1.000000
1.000000
1.000000
1.000000
1.000000
1.000000
1.000000
1.000000
1.000000
1.000000
1.000000
1.000000
1.000000
1.000000
1.000000
1.000000
1.000000
1.000000
1.000000
1.000000
1.000000
1.000000
1.000000
1.000000
1.000000
1.000000
1.000000
1.000000
1.000000
1.000000
1.000000
1.000000
1.000000
1.000000
1.000000
1.000000
1.000000
1.000000
1.000000
1.000000
1.000000
1.000000
1.000000
1.000000
1.000000
1.000000
1.000000
1.000000
1.000000
1.000000
1.000000
1.000000
1.000000
1.000000
1.000000
1.000000
1.000000
1.000000
1.000000
1.000000
1.000000
1.000000
1.000000
1.000000
VECTORS v double
9.999943 0.000000 0.030411
10.000049 0.000000 0.030411
9.994189 0.000000 0.030411
9.117522 0.000000 0.030411
-9.117524 0.000000 0.030411
-9.994185 0.000000 0.030411
-9.999997 0.000000 0.030411
-10.000235 0.000000 0.030411
-9.999765 0.000000 0.030411
-10.000000 0.000000 0.030411
9.999943 0.000000 0.030411
10.000049 0.000000 0.030411
9.994189 0.000000 0.030411
9.117522 0.000000 0.030411
-9.117524 0.000000 0.030411
-9.994185 0.000000 0.030411
-9.999997 0.000000 0.030411
-10.000235 0.000000 0.030411
-9.999765 0.000000 0.030411
-10.000000 0.000000 0.030411
9.999943 0.000000 0.030411
10.000049 0.000000 0.030411
9.994189 0.000000 0.030411
9.117522 0.000000 0.030411
-9.117524 0.000000 0.030411
-9.994185 0.000000 0.030411
-9.999997 0.000000 0.030411
-10.000235 0.000000 0.030411
-9.999765 0.000000 0.030411
-10.000000 0.000000 0.030411
9.999943 0.000000 0.030411
10.000049 0.000000 0.030411
9.994189 0.000000 0.030411
9.117522 0.000000 0.030411
-9.117524 0.000000 0.030411
-9.994185 0.000000 0.030411
-9.999997 0.000000 0.030411
-10.000235 0.000000 0.030411
-9.999765 0.000000 0.030411
-10.000000 0.000000 0.030411
9.999943 0.000000 0.030411
10.000049 0.000000 0.030411
9.994189 0.000000 0.030411
9.117522 0.000000 0.030411
-9.117524 0.000000 0.030411
-9.994185 0.000000 0.030411
-9.999997 0.000000 0.030411
-10.000235 0.000000 0.030411
-9.999765 0.000000 0.030411
-10.000000 0.000000 0.030411
9.999943 0.000000 0.030411
10.000049 0.000000 0.030411
9.994189 0.000000 0.030411
9.117522 0.000000 0.030411
-9.117524 0.000000 0.030411
-9.994185 0.000000 0.030411
-9.999997 0.000000 0.030411
-10.000235 0.000000 0.030411
-9.999765 0.000000 0.030411
-10.000000 0.000000 0.030411
9.999943 0.000000 0.030411
10.000049 0.000000 0.030411
9.994189 0.000000 0.030411
9.117522 0.000000 0.030411
-9.117524 0.000000 0.030411
-9.994185 0.000000 0.030411
-9.999997 0.000000 0.030411
-10.000235 0.000000 0.030411
-9.999765 0.000000 0.030411
-10.000000 0.000000 0.030411
9.999943 0.000000 0.030411
10.000049 0.000000 0.030411
9.994189 0.000000 0.030411
9.117522 0.000000 0.030411
-9.117524 0.000000 0.030411
-9.994185 0.000000 0.030411
-9.999997 0.000000 0.030411
-10.000235 0.000000 0.030411
-9.999765 0.000000 0.030411
-10.000000 0.000000 0.030411
9.999943 0.000000 0.030411
10.000049 0.000000 0.030411
9.994189 0.000000 0.030411
9.117522 0.000000 0.030411
-9.117524 0.000000 0.030411
-9.994185 0.000000 0.030411
-9.999997 0.000000 0.030411
-10.000235 0.000000 0.030411
-9.999765 0.000000 0.030411
-10.000000 0.000000 0.030411
