# vtk DataFile Version 4.0
hesp visualization file
ASCII
DATASET UNSTRUCTURED_GRID
POINTS 90 double
1.071000 1.000000 9.000247
2.070994 1.000000 9.000247
3.070751 1.000000 9.000247
4.060324 1.000000 9.000247
4.939676 1.000000 9.000247
5.929250 1.000000 9.000247
6.929005 1.000000 9.000247
7.929005 1.000000 9.000247
8.928987 1.000000 9.000247
9.928971 1.000000 9.000247
1.071000 2.000000 9.000247
2.070994 2.000000 9.000247
3.070751 2.000000 9.000247
4.060324 2.000000 9.000247
4.939676 2.000000 9.000247
5.929250 2.000000 9.000247
6.929005 2.000000 9.000247
7.929005 2.000000 9.000247
8.928987 2.000000 9.000247
9.928971 2.000000 9.000247
1.071000 3.000000 9.000247
2.070994 3.000000 9.000247
3.070751 3.000000 9.000247
4.060324 3.000000 9.000247
4.939676 3.000000 9.000247
5.929250 3.000000 9.000247
6.929005 3.000000 9.000247
7.929005 3.000000 9.000247
8.928987 3.000000 9.000247
9.928971 3.000000 9.000247
1.071000 4.000000 9.000247
2.070994 4.000000 9.000247
3.070751 4.000000 9.000247
4.060324 4.000000 9.000247
4.939676 4.000000 9.000247
5.929250 4.000000 9.000247
6.929005 4.000000 9.000247
7.929005 4.000000 9.000247
8.928987 4.000000 9.000247
9.928971 4.000000 9.000247
1.071000 5.000000 9.000247
2.070994 5.000000 9.000247
3.070751 5.000000 9.000247
4.060324 5.000000 9.000247
4.939676 5.000000 9.000247
5.929250 5.000000 9.000247
6.929005 5.000000 9.000247
7.929005 5.000000 9.000247
8.928987 5.000000 9.000247
9.928971 5.000000 9.000247
1.071000 6.000000 9.000247
2.070994 6.000000 9.000247
3.070751 6.000000 9.000247
4.060324 6.000000 9.000247
4.939676 6.000000 9.000247
5.929250 6.000000 9.000247
6.929005 6.000000 9.000247
7.929005 6.000000 9.000247
8.928987 6.000000 9.000247
9.928971 6.000000 9.000247
1.071000 7.000000 9.000247
2.070994 7.000000 9.000247
3.070751 7.000000 9.000247
4.060324 7.000000 9.000247
4.939676 7.000000 9.000247
5.929250 7.000000 9.000247
6.929005 7.000000 9.000247
7.929005 7.000000 9.000247
8.928987 7.000000 9.000247
9.928971 7.000000 9.000247
1.071000 8.000000 9.000247
2.070994 8.000000 9.000247
3.070751 8.000000 9.000247
4.060324 8.000000 9.000247
4.939676 8.000000 9.000247
5.929250 8.000000 9.000247
6.929005 8.000000 9.000247
7.929005 8.000000 9.000247
8.928987 8.000000 9.000247
9.928971 8.000000 9.000247
1.071000 9.000000 9.000247
2.070994 9.000000 9.000247
3.070751 9.000000 9.000247
4.060324 9.000000 9.000247
4.939676 9.000000 9.000247
5.929250 9.000000 9.000247
6.929005 9.000000 9.000247
7.929005 9.000000 9.000247
8.928987 9.000000 9.000247
9.928971 9.000000 9.000247
CELLS 0 0
CELL_TYPES 0
POINT_DATA 90
SCALARS m double
LOOKUP_TABLE default
1.000000
1.000000
1.000000
1.000000
1.000000
1.000000
1.000000
1.000000
1.000000
1.000000
1.000000
1.000000
1.000000
1.000000
1.000000
1.000000
1.000000
1.000000
1.000000
1.000000
1.000000
1.000000
1.000000
1.000000
1.000000
1.000000
1.000000
1.000000
1.000000
1.000000
1.000000
1.000000
1.000000
1.000000
1.000000
1.000000
1.000000
1.000000
1.000000
1.000000
1.000000
1.000000
1.000000
1.000000
1.000000
1.000000
1.000000
1.000000
1.000000
1.000000
1.000000
1.000000
1.000000
1.000000
1.000000
1.000000
1.000000
1.000000
1.000000
1.000000
1.000000
1.000000
1.000000
1.000000
1.000000
1.000000
1.000000
1.000000
1.000000
1.000000
1.000000
1.000000
1.000000
1.000000
1.000000
1.000000
1.000000
1.000000
1.000000
1.000000
1.000000
1.000000
1.000000
1.000000
1.000000
1.000000
1.000000
1.000000
1.000000
1.000000
VECTORS v double
9.999730 0.000000 0.069651
9.997723 0.000000 0.069651
9.824429 0.000000 0.069651
5.639759 0.000000 0.069651
-5.639760 0.000000 0.069651
-9.824436 0.000000 0.069651
-9.997462 0.000000 0.069651
-10.001095 0.000000 0.069651
-9.999027 0.000000 0.069651
-9.999886 0.000000 0.069651
9.999730 0.000000 0.069651
9.997723 0.000000 0.069651
9.824429 0.000000 0.069651
5.639759 0.000000 0.069651
-5.639760 0.000000 0.069651
-9.824436 0.000000 0.069651
-9.997462 0.000000 0.069651
-10.001095 0.000000 0.069651
-9.999027 0.000000 0.069651
-9.999886 0.000000 0.069651
9.999730 0.000000 0.069651
9.997723 0.000000 0.069651
9.824429 0.000000 0.069651
5.639759 0.000000 0.069651
-5.639760 0.000000 0.069651
-9.824436 0.000000 0.069651
-9.997462 0.000000 0.069651
-10.001095 0.000000 0.069651
-9.999027 0.000000 0.069651
-9.999886 0.000000 0.069651
9.999730 0.000000 0.069651
9.997723 0.000000 0.069651
9.824429 0.000000 0.069651
5.639759 0.000000 0.069651
-5.639760 0.000000 0.069651
-9.824436 0.000000 0.069651
-9.997462 0.000000 0.069651
-10.001095 0.000000 0.069651
-9.999027 0.000000 0.069651
-9.999886 0.000000 0.069651
9.999730 0.000000 0.069651
9.997723 0.000000 0.069651
9.824429 0.000000 0.069651
5.639759 0.000000 0.069651
-5.639760 0.000000 0.069651
-9.824436 0.000000 0.069651
-9.997462 0.000000 0.069651
-10.001095 0.000000 0.069651
-9.999027 0.000000 0.069651
-9.999886 0.000000 0.069651
9.999730 0.000000 0.069651
9.997723 0.000000 0.069651
9.824429 0.000000 0.069651
5.639759 0.000000 0.069651
-5.639760 0.000000 0.069651
-9.824436 0.000000 0.069651
-9.997462 0.000000 0.069651
-10.001095 0.000000 0.069651
-9.999027 0.000000 0.069651
-9.999886 0.000000 0.069651
9.999730 0.000000 0.069651
9.997723 0.000000 0.069651
9.824429 0.000000 0.069651
5.639759 0.000000 0.069651
-5.639760 0.000000 0.069651
-9.824436 0.000000 0.069651
-9.997462 0.000000 0.069651
-10.001095 0.000000 0.069651
-9.999027 0.000000 0.069651
-9.999886 0.000000 0.069651
9.999730 0.000000 0.069651
9.997723 0.000000 0.069651
9.824429 0.000000 0.069651
5.639759 0.000000 0.069651
-5.639760 0.000000 0.069651
-9.824436 0.000000 0.069651
-9.997462 0.000000 0.069651
-10.001095 0.000000 0.069651
-9.999027 0.000000 0.069651
-9.999886 0.000000 0.069651
9.999730 0.000000 0.069651
9.997723 0.000000 0.069651
9.824429 0.000000 0.069651
5.639759 0.000000 0.069651
-5.639760 0.000000 0.069651
-9.824436 0.000000 0.069651
-9.997462 0.000000 0.069651
-10.001095 0.000000 0.069651
-9.999027 0.000000 0.069651
-9.999886 0.000000 0.069651
