# vtk DataFile Version 4.0
hesp visualization file
ASCII
DATASET UNSTRUCTURED_GRID
POINTS 90 double
1.350518 1.000000 9.007119
2.271956 1.000000 9.007119
3.135663 1.000000 9.007119
4.057143 1.000000 9.007119
4.942854 1.000000 9.007119
5.864305 1.000000 9.007119
6.727632 1.000000 9.007119
7.645531 1.000000 9.007119
8.622988 1.000000 9.007119
9.619454 1.000000 9.007119
1.350518 2.000000 9.007119
2.271956 2.000000 9.007119
3.135663 2.000000 9.007119
4.057143 2.000000 9.007119
4.942854 2.000000 9.007119
5.864305 2.000000 9.007119
6.727632 2.000000 9.007119
7.645531 2.000000 9.007119
8.622988 2.000000 9.007119
9.619454 2.000000 9.007119
1.350518 3.000000 9.007119
2.271956 3.000000 9.007119
3.135663 3.000000 9.007119
4.057143 3.000000 9.007119
4.942854 3.000000 9.007119
5.864305 3.000000 9.007119
6.727632 3.000000 9.007119
7.645531 3.000000 9.007119
8.622988 3.000000 9.007119
9.619454 3.000000 9.007119
1.350518 4.000000 9.007119
2.271956 4.000000 9.007119
3.135663 4.000000 9.007119
4.057143 4.000000 9.007119
4.942854 4.000000 9.007119
5.864305 4.000000 9.007119
6.727632 4.000000 9.007119
7.645531 4.000000 9.007119
8.622988 4.000000 9.007119
9.619454 4.000000 9.007119
1.350518 5.000000 9.007119
2.271956 5.000000 9.007119
3.135663 5.000000 9.007119
4.057143 5.000000 9.007119
4.942854 5.000000 9.007119
5.864305 5.000000 9.007119
6.727632 5.000000 9.007119
7.645531 5.000000 9.007119
8.622988 5.000000 9.007119
9.619454 5.000000 9.007119
1.350518 6.000000 9.007119
2.271956 6.000000 9.007119
3.135663 6.000000 9.007119
4.057143 6.000000 9.007119
4.942854 6.000000 9.007119
5.864305 6.000000 9.007119
6.727632 6.000000 9.007119
7.645531 6.000000 9.007119
8.622988 6.000000 9.007119
9.619454 6.000000 9.007119
1.350518 7.000000 9.007119
2.271956 7.000000 9.007119
3.135663 7.000000 9.007119
4.057143 7.000000 9.007119
4.942854 7.000000 9.007119
5.864305 7.000000 9.007119
6.727632 7.000000 9.007119
7.645531 7.000000 9.007119
8.622988 7.000000 9.007119
9.619454 7.000000 9.007119
1.350518 8.000000 9.007119
2.271956 8.000000 9.007119
3.135663 8.000000 9.007119
4.057143 8.000000 9.007119
4.942854 8.000000 9.007119
5.864305 8.000000 9.007119
6.727632 8.000000 9.007119
7.645531 8.000000 9.007119
8.622988 8.000000 9.007119
9.619454 8.000000 9.007119
1.350518 9.000000 9.007119
2.271956 9.000000 9.007119
3.135663 9.000000 9.007119
4.057143 9.000000 9.007119
4.942854 9.000000 9.007119
5.864305 9.000000 9.007119
6.727632 9.000000 9.007119
7.645531 9.000000 9.007119
8.622988 9.000000 9.007119
9.619454 9.000000 9.007119
CELLS 0 0
CELL_TYPES 0
POINT_DATA 90
SCALARS m double
LOOKUP_TABLE default
1.000000
1.000000
1.000000
1.000000
1.000000
1.000000
1.000000
1.000000
1.000000
1.000000
1.000000
1.000000
1.000000
1.000000
1.000000
1.000000
1.000000
1.000000
1.000000
1.000000
1.000000
1.000000
1.000000
1.000000
1.000000
1.000000
1.000000
1.000000
1.000000
1.000000
1.000000
1.000000
1.000000
1.000000
1.000000
1.000000
1.000000
1.000000
1.000000
1.000000
1.000000
1.000000
1.000000
1.000000
1.000000
1.000000
1.000000
1.000000
1.000000
1.000000
1.000000
1.000000
1.000000
1.000000
1.000000
1.000000
1.000000
1.000000
1.000000
1.000000
1.000000
1.000000
1.000000
1.000000
1.000000
1.000000
1.000000
1.000000
1.000000
1.000000
1.000000
1.000000
1.000000
1.000000
1.000000
1.000000
1.000000
1.000000
1.000000
1.000000
1.000000
1.000000
1.000000
1.000000
1.000000
1.000000
1.000000
1.000000
1.000000
1.000000
VECTORS v double
4.424539 0.000000 0.373758
-2.023464 0.000000 0.373758
-1.742363 0.000000 0.373758
2.681434 0.000000 0.373758
-2.682391 0.000000 0.373758
1.731746 0.000000 0.373758
1.905190 0.000000 0.373758
-5.364544 0.000000 0.373758
-9.055757 0.000000 0.373758
-9.874416 0.000000 0.373758
4.424539 0.000000 0.373758
-2.023464 0.000000 0.373758
-1.742363 0.000000 0.373758
2.681434 0.000000 0.373758
-2.682391 0.000000 0.373758
1.731746 0.000000 0.373758
1.905190 0.000000 0.373758
-5.364544 0.000000 0.373758
-9.055757 0.000000 0.373758
-9.874416 0.000000 0.373758
4.424539 0.000000 0.373758
-2.023464 0.000000 0.373758
-1.742363 0.000000 0.373758
2.681434 0.000000 0.373758
-2.682391 0.000000 0.373758
1.731746 0.000000 0.373758
1.905190 0.000000 0.373758
-5.364544 0.000000 0.373758
-9.055757 0.000000 0.373758
-9.874416 0.000000 0.373758
4.424539 0.000000 0.373758
-2.023464 0.000000 0.373758
-1.742363 0.000000 0.373758
2.681434 0.000000 0.373758
-2.682391 0.000000 0.373758
1.731746 0.000000 0.373758
1.905190 0.000000 0.373758
-5.364544 0.000000 0.373758
-9.055757 0.000000 0.373758
-9.874416 0.000000 0.373758
4.424539 0.000000 0.373758
-2.023464 0.000000 0.373758
-1.742363 0.000000 0.373758
2.681434 0.000000 0.373758
-2.682391 0.000000 0.373758
1.731746 0.000000 0.373758
1.905190 0.000000 0.373758
-5.364544 0.000000 0.373758
-9.055757 0.000000 0.373758
-9.874416 0.000000 0.373758
4.424539 0.000000 0.373758
-2.023464 0.000000 0.373758
-1.742363 0.000000 0.373758
2.681434 0.000000 0.373758
-2.682391 0.000000 0.373758
1.731746 0.000000 0.373758
1.905190 0.000000 0.373758
-5.364544 0.000000 0.373758
-9.055757 0.000000 0.373758
-9.874416 0.000000 0.373758
4.424539 0.000000 0.373758
-2.023464 0.000000 0.373758
-1.742363 0.000000 0.373758
2.681434 0.000000 0.373758
-2.682391 0.000000 0.373758
1.731746 0.000000 0.373758
1.905190 0.000000 0.373758
-5.364544 0.000000 0.373758
-9.055757 0.000000 0.373758
-9.874416 0.000000 0.373758
4.424539 0.000000 0.373758
-2.023464 0.000000 0.373758
-1.742363 0.000000 0.373758
2.681434 0.000000 0.373758
-2.682391 0.000000 0.373758
1.731746 0.000000 0.373758
1.905190 0.000000 0.373758
-5.364544 0.000000 0.373758
-9.055757 0.000000 0.373758
-9.874416 0.000000 0.373758
4.424539 0.000000 0.373758
-2.023464 0.000000 0.373758
-1.742363 0.000000 0.373758
2.681434 0.000000 0.373758
-2.682391 0.000000 0.373758
1.731746 0.000000 0.373758
1.905190 0.000000 0.373758
-5.364544 0.000000 0.373758
-9.055757 0.000000 0.373758
-9.874416 0.000000 0.373758
