# vtk DataFile Version 4.0
hesp visualization file
ASCII
DATASET UNSTRUCTURED_GRID
POINTS 90 double
1.320019 1.000000 9.005373
2.273677 1.000000 9.005373
3.150146 1.000000 9.005373
4.041769 1.000000 9.005373
4.958231 1.000000 9.005373
5.849848 1.000000 9.005373
6.726232 1.000000 9.005373
7.678916 1.000000 9.005373
8.670082 1.000000 9.005373
9.669125 1.000000 9.005373
1.320019 2.000000 9.005373
2.273677 2.000000 9.005373
3.150146 2.000000 9.005373
4.041769 2.000000 9.005373
4.958231 2.000000 9.005373
5.849848 2.000000 9.005373
6.726232 2.000000 9.005373
7.678916 2.000000 9.005373
8.670082 2.000000 9.005373
9.669125 2.000000 9.005373
1.320019 3.000000 9.005373
2.273677 3.000000 9.005373
3.150146 3.000000 9.005373
4.041769 3.000000 9.005373
4.958231 3.000000 9.005373
5.849848 3.000000 9.005373
6.726232 3.000000 9.005373
7.678916 3.000000 9.005373
8.670082 3.000000 9.005373
9.669125 3.000000 9.005373
1.320019 4.000000 9.005373
2.273677 4.000000 9.005373
3.150146 4.000000 9.005373
4.041769 4.000000 9.005373
4.958231 4.000000 9.005373
5.849848 4.000000 9.005373
6.726232 4.000000 9.005373
7.678916 4.000000 9.005373
8.670082 4.000000 9.005373
9.669125 4.000000 9.005373
1.320019 5.000000 9.005373
2.273677 5.000000 9.005373
3.150146 5.000000 9.005373
4.041769 5.000000 9.005373
4.958231 5.000000 9.005373
5.849848 5.000000 9.005373
6.726232 5.000000 9.005373
7.678916 5.000000 9.005373
8.670082 5.000000 9.005373
9.669125 5.000000 9.005373
1.320019 6.000000 9.005373
2.273677 6.000000 9.005373
3.150146 6.000000 9.005373
4.041769 6.000000 9.005373
4.958231 6.000000 9.005373
5.849848 6.000000 9.005373
6.726232 6.000000 9.005373
7.678916 6.000000 9.005373
8.670082 6.000000 9.005373
9.669125 6.000000 9.005373
1.320019 7.000000 9.005373
2.273677 7.000000 9.005373
3.150146 7.000000 9.005373
4.041769 7.000000 9.005373
4.958231 7.000000 9.005373
5.849848 7.000000 9.005373
6.726232 7.000000 9.005373
7.678916 7.000000 9.005373
8.670082 7.000000 9.005373
9.669125 7.000000 9.005373
1.320019 8.000000 9.005373
2.273677 8.000000 9.005373
3.150146 8.000000 9.005373
4.041769 8.000000 9.005373
4.958231 8.000000 9.005373
5.849848 8.000000 9.005373
6.726232 8.000000 9.005373
7.678916 8.000000 9.005373
8.670082 8.000000 9.005373
9.669125 8.000000 9.005373
1.320019 9.000000 9.005373
2.273677 9.000000 9.005373
3.150146 9.000000 9.005373
4.041769 9.000000 9.005373
4.958231 9.000000 9.005373
5.849848 9.000000 9.005373
6.726232 9.000000 9.005373
7.678916 9.000000 9.005373
8.670082 9.000000 9.005373
9.669125 9.000000 9.005373
CELLS 0 0
CELL_TYPES 0
POINT_DATA 90
SCALARS m double
LOOKUP_TABLE default
1.000000
1.000000
1.000000
1.000000
1.000000
1.000000
1.000000
1.000000
1.000000
1.000000
1.000000
1.000000
1.000000
1.000000
1.000000
1.000000
1.000000
1.000000
1.000000
1.000000
1.000000
1.000000
1.000000
1.000000
1.000000
1.000000
1.000000
1.000000
1.000000
1.000000
1.000000
1.000000
1.000000
1.000000
1.000000
1.000000
1.000000
1.000000
1.000000
1.000000
1.000000
1.000000
1.000000
1.000000
1.000000
1.000000
1.000000
1.000000
1.000000
1.000000
1.000000
1.000000
1.000000
1.000000
1.000000
1.000000
1.000000
1.000000
1.000000
1.000000
1.000000
1.000000
1.000000
1.000000
1.000000
1.000000
1.000000
1.000000
1.000000
1.000000
1.000000
1.000000
1.000000
1.000000
1.000000
1.000000
1.000000
1.000000
1.000000
1.000000
1.000000
1.000000
1.000000
1.000000
1.000000
1.000000
1.000000
1.000000
1.000000
1.000000
VECTORS v double
7.505284 0.000000 0.324710
1.493257 0.000000 0.324710
-3.684420 0.000000 0.324710
2.952636 0.000000 0.324710
-2.952913 0.000000 0.324710
3.682787 0.000000 0.324710
-1.522191 0.000000 0.324710
-7.811355 0.000000 0.324710
-9.690114 0.000000 0.324710
-9.973008 0.000000 0.324710
7.505284 0.000000 0.324710
1.493257 0.000000 0.324710
-3.684420 0.000000 0.324710
2.952636 0.000000 0.324710
-2.952913 0.000000 0.324710
3.682787 0.000000 0.324710
-1.522191 0.000000 0.324710
-7.811355 0.000000 0.324710
-9.690114 0.000000 0.324710
-9.973008 0.000000 0.324710
7.505284 0.000000 0.324710
1.493257 0.000000 0.324710
-3.684420 0.000000 0.324710
2.952636 0.000000 0.324710
-2.952913 0.000000 0.324710
3.682787 0.000000 0.324710
-1.522191 0.000000 0.324710
-7.811355 0.000000 0.324710
-9.690114 0.000000 0.324710
-9.973008 0.000000 0.324710
7.505284 0.000000 0.324710
1.493257 0.000000 0.324710
-3.684420 0.000000 0.324710
2.952636 0.000000 0.324710
-2.952913 0.000000 0.324710
3.682787 0.000000 0.324710
-1.522191 0.000000 0.324710
-7.811355 0.000000 0.324710
-9.690114 0.000000 0.324710
-9.973008 0.000000 0.324710
7.505284 0.000000 0.324710
1.493257 0.000000 0.324710
-3.684420 0.000000 0.324710
2.952636 0.000000 0.324710
-2.952913 0.000000 0.324710
3.682787 0.000000 0.324710
-1.522191 0.000000 0.324710
-7.811355 0.000000 0.324710
-9.690114 0.000000 0.324710
-9.973008 0.000000 0.324710
7.505284 0.000000 0.324710
1.493257 0.000000 0.324710
-3.684420 0.000000 0.324710
2.952636 0.000000 0.324710
-2.952913 0.000000 0.324710
3.682787 0.000000 0.324710
-1.522191 0.000000 0.324710
-7.811355 0.000000 0.324710
-9.690114 0.000000 0.324710
-9.973008 0.000000 0.324710
7.505284 0.000000 0.324710
1.493257 0.000000 0.324710
-3.684420 0.000000 0.324710
2.952636 0.000000 0.324710
-2.952913 0.000000 0.324710
3.682787 0.000000 0.324710
-1.522191 0.000000 0.324710
-7.811355 0.000000 0.324710
-9.690114 0.000000 0.324710
-9.973008 0.000000 0.324710
7.505284 0.000000 0.324710
1.493257 0.000000 0.324710
-3.684420 0.000000 0.324710
2.952636 0.000000 0.324710
-2.952913 0.000000 0.324710
3.682787 0.000000 0.324710
-1.522191 0.000000 0.324710
-7.811355 0.000000 0.324710
-9.690114 0.000000 0.324710
-9.973008 0.000000 0.324710
7.505284 0.000000 0.324710
1.493257 0.000000 0.324710
-3.684420 0.000000 0.324710
2.952636 0.000000 0.324710
-2.952913 0.000000 0.324710
3.682787 0.000000 0.324710
-1.522191 0.000000 0.324710
-7.811355 0.000000 0.324710
-9.690114 0.000000 0.324710
-9.973008 0.000000 0.324710
