# vtk DataFile Version 4.0
hesp visualization file
ASCII
DATASET UNSTRUCTURED_GRID
POINTS 90 double
0.840003 1.000000 9.036361
1.979724 1.000000 9.036361
2.997274 1.000000 9.036361
3.965970 1.000000 9.036361
4.932578 1.000000 9.036361
5.835823 1.000000 9.036361
6.767054 1.000000 9.036361
7.663374 1.000000 9.036361
8.634691 1.000000 9.036361
9.661540 1.000000 9.036361
0.840003 2.000000 9.036361
1.979724 2.000000 9.036361
2.997274 2.000000 9.036361
3.965970 2.000000 9.036361
4.932578 2.000000 9.036361
5.835823 2.000000 9.036361
6.767054 2.000000 9.036361
7.663374 2.000000 9.036361
8.634691 2.000000 9.036361
9.661540 2.000000 9.036361
0.840003 3.000000 9.036361
1.979724 3.000000 9.036361
2.997274 3.000000 9.036361
3.965970 3.000000 9.036361
4.932578 3.000000 9.036361
5.835823 3.000000 9.036361
6.767054 3.000000 9.036361
7.663374 3.000000 9.036361
8.634691 3.000000 9.036361
9.661540 3.000000 9.036361
0.840003 4.000000 9.036361
1.979724 4.000000 9.036361
2.997274 4.000000 9.036361
3.965970 4.000000 9.036361
4.932578 4.000000 9.036361
5.835823 4.000000 9.036361
6.767054 4.000000 9.036361
7.663374 4.000000 9.036361
8.634691 4.000000 9.036361
9.661540 4.000000 9.036361
0.840003 5.000000 9.036361
1.979724 5.000000 9.036361
2.997274 5.000000 9.036361
3.965970 5.000000 9.036361
4.932578 5.000000 9.036361
5.835823 5.000000 9.036361
6.767054 5.000000 9.036361
7.663374 5.000000 9.036361
8.634691 5.000000 9.036361
9.661540 5.000000 9.036361
0.840003 6.000000 9.036361
1.979724 6.000000 9.036361
2.997274 6.000000 9.036361
3.965970 6.000000 9.036361
4.932578 6.000000 9.036361
5.835823 6.000000 9.036361
6.767054 6.000000 9.036361
7.663374 6.000000 9.036361
8.634691 6.000000 9.036361
9.661540 6.000000 9.036361
0.840003 7.000000 9.036361
1.979724 7.000000 9.036361
2.997274 7.000000 9.036361
3.965970 7.000000 9.036361
4.932578 7.000000 9.036361
5.835823 7.000000 9.036361
6.767054 7.000000 9.036361
7.663374 7.000000 9.036361
8.634691 7.000000 9.036361
9.661540 7.000000 9.036361
0.840003 8.000000 9.036361
1.979724 8.000000 9.036361
2.997274 8.000000 9.036361
3.965970 8.000000 9.036361
4.932578 8.000000 9.036361
5.835823 8.000000 9.036361
6.767054 8.000000 9.036361
7.663374 8.000000 9.036361
8.634691 8.000000 9.036361
9.661540 8.000000 9.036361
0.840003 9.000000 9.036361
1.979724 9.000000 9.036361
2.997274 9.000000 9.036361
3.965970 9.000000 9.036361
4.932578 9.000000 9.036361
5.835823 9.000000 9.036361
6.767054 9.000000 9.036361
7.663374 9.000000 9.036361
8.634691 9.000000 9.036361
9.661540 9.000000 9.036361
CELLS 0 0
CELL_TYPES 0
POINT_DATA 90
SCALARS m double
LOOKUP_TABLE default
1.000000
1.000000
1.000000
1.000000
1.000000
1.000000
1.000000
1.000000
1.000000
1.000000
1.000000
1.000000
1.000000
1.000000
1.000000
1.000000
1.000000
1.000000
1.000000
1.000000
1.000000
1.000000
1.000000
1.000000
1.000000
1.000000
1.000000
1.000000
1.000000
1.000000
1.000000
1.000000
1.000000
1.000000
1.000000
1.000000
1.000000
1.000000
1.000000
1.000000
1.000000
1.000000
1.000000
1.000000
1.000000
1.000000
1.000000
1.000000
1.000000
1.000000
1.000000
1.000000
1.000000
1.000000
1.000000
1.000000
1.000000
1.000000
1.000000
1.000000
1.000000
1.000000
1.000000
1.000000
1.000000
1.000000
1.000000
1.000000
1.000000
1.000000
1.000000
1.000000
1.000000
1.000000
1.000000
1.000000
1.000000
1.000000
1.000000
1.000000
1.000000
1.000000
1.000000
1.000000
1.000000
1.000000
1.000000
1.000000
1.000000
1.000000
VECTORS v double
-14.387302 0.000000 0.844625
-11.721501 0.000000 0.844625
-7.445853 0.000000 0.844625
-8.839819 0.000000 0.844625
-1.537237 0.000000 0.844625
-2.129273 0.000000 0.844625
1.168570 0.000000 0.844625
4.738024 0.000000 0.844625
5.391252 0.000000 0.844625
14.763111 0.000000 0.844625
-14.387302 0.000000 0.844625
-11.721501 0.000000 0.844625
-7.445853 0.000000 0.844625
-8.839819 0.000000 0.844625
-1.537237 0.000000 0.844625
-2.129273 0.000000 0.844625
1.168570 0.000000 0.844625
4.738024 0.000000 0.844625
5.391252 0.000000 0.844625
14.763111 0.000000 0.844625
-14.387302 0.000000 0.844625
-11.721501 0.000000 0.844625
-7.445853 0.000000 0.844625
-8.839819 0.000000 0.844625
-1.537237 0.000000 0.844625
-2.129273 0.000000 0.844625
1.168570 0.000000 0.844625
4.738024 0.000000 0.844625
5.391252 0.000000 0.844625
14.763111 0.000000 0.844625
-14.387302 0.000000 0.844625
-11.721501 0.000000 0.844625
-7.445853 0.000000 0.844625
-8.839819 0.000000 0.844625
-1.537237 0.000000 0.844625
-2.129273 0.000000 0.844625
1.168570 0.000000 0.844625
4.738024 0.000000 0.844625
5.391252 0.000000 0.844625
14.763111 0.000000 0.844625
-14.387302 0.000000 0.844625
-11.721501 0.000000 0.844625
-7.445853 0.000000 0.844625
-8.839819 0.000000 0.844625
-1.537237 0.000000 0.844625
-2.129273 0.000000 0.844625
1.168570 0.000000 0.844625
4.738024 0.000000 0.844625
5.391252 0.000000 0.844625
14.763111 0.000000 0.844625
-14.387302 0.000000 0.844625
-11.721501 0.000000 0.844625
-7.445853 0.000000 0.844625
-8.839819 0.000000 0.844625
-1.537237 0.000000 0.844625
-2.129273 0.000000 0.844625
1.168570 0.000000 0.844625
4.738024 0.000000 0.844625
5.391252 0.000000 0.844625
14.763111 0.000000 0.844625
-14.387302 0.000000 0.844625
-11.721501 0.000000 0.844625
-7.445853 0.000000 0.844625
-8.839819 0.000000 0.844625
-1.537237 0.000000 0.844625
-2.129273 0.000000 0.844625
1.168570 0.000000 0.844625
4.738024 0.000000 0.844625
5.391252 0.000000 0.844625
14.763111 0.000000 0.844625
-14.387302 0.000000 0.844625
-11.721501 0.000000 0.844625
-7.445853 0.000000 0.844625
-8.839819 0.000000 0.844625
-1.537237 0.000000 0.844625
-2.129273 0.000000 0.844625
1.168570 0.000000 0.844625
4.738024 0.000000 0.844625
5.391252 0.000000 0.844625
14.763111 0.000000 0.844625
-14.387302 0.000000 0.844625
-11.721501 0.000000 0.844625
-7.445853 0.000000 0.844625
-8.839819 0.000000 0.844625
-1.537237 0.000000 0.844625
-2.129273 0.000000 0.844625
1.168570 0.000000 0.844625
4.738024 0.000000 0.844625
5.391252 0.000000 0.844625
14.763111 0.000000 0.844625
