# vtk DataFile Version 4.0
hesp visualization file
ASCII
DATASET UNSTRUCTURED_GRID
POINTS 90 double
1.360900 1.000000 9.009538
2.252099 1.000000 9.009538
3.135943 1.000000 9.009538
4.064421 1.000000 9.009538
4.935559 1.000000 9.009538
5.863848 1.000000 9.009538
6.745892 1.000000 9.009538
7.624995 1.000000 9.009538
8.573170 1.000000 9.009538
9.561216 1.000000 9.009538
1.360900 2.000000 9.009538
2.252099 2.000000 9.009538
3.135943 2.000000 9.009538
4.064421 2.000000 9.009538
4.935559 2.000000 9.009538
5.863848 2.000000 9.009538
6.745892 2.000000 9.009538
7.624995 2.000000 9.009538
8.573170 2.000000 9.009538
9.561216 2.000000 9.009538
1.360900 3.000000 9.009538
2.252099 3.000000 9.009538
3.135943 3.000000 9.009538
4.064421 3.000000 9.009538
4.935559 3.000000 9.009538
5.863848 3.000000 9.009538
6.745892 3.000000 9.009538
7.624995 3.000000 9.009538
8.573170 3.000000 9.009538
9.561216 3.000000 9.009538
1.360900 4.000000 9.009538
2.252099 4.000000 9.009538
3.135943 4.000000 9.009538
4.064421 4.000000 9.009538
4.935559 4.000000 9.009538
5.863848 4.000000 9.009538
6.745892 4.000000 9.009538
7.624995 4.000000 9.009538
8.573170 4.000000 9.009538
9.561216 4.000000 9.009538
1.360900 5.000000 9.009538
2.252099 5.000000 9.009538
3.135943 5.000000 9.009538
4.064421 5.000000 9.009538
4.935559 5.000000 9.009538
5.863848 5.000000 9.009538
6.745892 5.000000 9.009538
7.624995 5.000000 9.009538
8.573170 5.000000 9.009538
9.561216 5.000000 9.009538
1.360900 6.000000 9.009538
2.252099 6.000000 9.009538
3.135943 6.000000 9.009538
4.064421 6.000000 9.009538
4.935559 6.000000 9.009538
5.863848 6.000000 9.009538
6.745892 6.000000 9.009538
7.624995 6.000000 9.009538
8.573170 6.000000 9.009538
9.561216 6.000000 9.009538
1.360900 7.000000 9.009538
2.252099 7.000000 9.009538
3.135943 7.000000 9.009538
4.064421 7.000000 9.009538
4.935559 7.000000 9.009538
5.863848 7.000000 9.009538
6.745892 7.000000 9.009538
7.624995 7.000000 9.009538
8.573170 7.000000 9.009538
9.561216 7.000000 9.009538
1.360900 8.000000 9.009538
2.252099 8.000000 9.009538
3.135943 8.000000 9.009538
4.064421 8.000000 9.009538
4.935559 8.000000 9.009538
5.863848 8.000000 9.009538
6.745892 8.000000 9.009538
7.624995 8.000000 9.009538
8.573170 8.000000 9.009538
9.561216 8.000000 9.009538
1.360900 9.000000 9.009538
2.252099 9.000000 9.009538
3.135943 9.000000 9.009538
4.064421 9.000000 9.009538
4.935559 9.000000 9.009538
5.863848 9.000000 9.009538
6.745892 9.000000 9.009538
7.624995 9.000000 9.009538
8.573170 9.000000 9.009538
9.561216 9.000000 9.009538
CELLS 0 0
CELL_TYPES 0
POINT_DATA 90
SCALARS m double
LOOKUP_TABLE default
1.000000
1.000000
1.000000
1.000000
1.000000
1.000000
1.000000
1.000000
1.000000
1.000000
1.000000
1.000000
1.000000
1.000000
1.000000
1.000000
1.000000
1.000000
1.000000
1.000000
1.000000
1.000000
1.000000
1.000000
1.000000
1.000000
1.000000
1.000000
1.000000
1.000000
1.000000
1.000000
1.000000
1.000000
1.000000
1.000000
1.000000
1.000000
1.000000
1.000000
1.000000
1.000000
1.000000
1.000000
1.000000
1.000000
1.000000
1.000000
1.000000
1.000000
1.000000
1.000000
1.000000
1.000000
1.000000
1.000000
1.000000
1.000000
1.000000
1.000000
1.000000
1.000000
1.000000
1.000000
1.000000
1.000000
1.000000
1.000000
1.000000
1.000000
1.000000
1.000000
1.000000
1.000000
1.000000
1.000000
1.000000
1.000000
1.000000
1.000000
1.000000
1.000000
1.000000
1.000000
1.000000
1.000000
1.000000
1.000000
1.000000
1.000000
VECTORS v double
-1.275320 0.000000 0.432617
-4.085084 0.000000 0.432617
1.713894 0.000000 0.432617
-0.487728 0.000000 0.432617
0.481714 0.000000 0.432617
-1.774115 0.000000 0.432617
3.601325 0.000000 0.432617
-1.377292 0.000000 0.432617
-7.340329 0.000000 0.432617
-9.457099 0.000000 0.432617
-1.275320 0.000000 0.432617
-4.085084 0.000000 0.432617
1.713894 0.000000 0.432617
-0.487728 0.000000 0.432617
0.481714 0.000000 0.432617
-1.774115 0.000000 0.432617
3.601325 0.000000 0.432617
-1.377292 0.000000 0.432617
-7.340329 0.000000 0.432617
-9.457099 0.000000 0.432617
-1.275320 0.000000 0.432617
-4.085084 0.000000 0.432617
1.713894 0.000000 0.432617
-0.487728 0.000000 0.432617
0.481714 0.000000 0.432617
-1.774115 0.000000 0.432617
3.601325 0.000000 0.432617
-1.377292 0.000000 0.432617
-7.340329 0.000000 0.432617
-9.457099 0.000000 0.432617
-1.275320 0.000000 0.432617
-4.085084 0.000000 0.432617
1.713894 0.000000 0.432617
-0.487728 0.000000 0.432617
0.481714 0.000000 0.432617
-1.774115 0.000000 0.432617
3.601325 0.000000 0.432617
-1.377292 0.000000 0.432617
-7.340329 0.000000 0.432617
-9.457099 0.000000 0.432617
-1.275320 0.000000 0.432617
-4.085084 0.000000 0.432617
1.713894 0.000000 0.432617
-0.487728 0.000000 0.432617
0.481714 0.000000 0.432617
-1.774115 0.000000 0.432617
3.601325 0.000000 0.432617
-1.377292 0.000000 0.432617
-7.340329 0.000000 0.432617
-9.457099 0.000000 0.432617
-1.275320 0.000000 0.432617
-4.085084 0.000000 0.432617
1.713894 0.000000 0.432617
-0.487728 0.000000 0.432617
0.481714 0.000000 0.432617
-1.774115 0.000000 0.432617
3.601325 0.000000 0.432617
-1.377292 0.000000 0.432617
-7.340329 0.000000 0.432617
-9.457099 0.000000 0.432617
-1.275320 0.000000 0.432617
-4.085084 0.000000 0.432617
1.713894 0.000000 0.432617
-0.487728 0.000000 0.432617
0.481714 0.000000 0.432617
-1.774115 0.000000 0.432617
3.601325 0.000000 0.432617
-1.377292 0.000000 0.432617
-7.340329 0.000000 0.432617
-9.457099 0.000000 0.432617
-1.275320 0.000000 0.432617
-4.085084 0.000000 0.432617
1.713894 0.000000 0.432617
-0.487728 0.000000 0.432617
0.481714 0.000000 0.432617
-1.774115 0.000000 0.432617
3.601325 0.000000 0.432617
-1.377292 0.000000 0.432617
-7.340329 0.000000 0.432617
-9.457099 0.000000 0.432617
-1.275320 0.000000 0.432617
-4.085084 0.000000 0.432617
1.713894 0.000000 0.432617
-0.487728 0.000000 0.432617
0.481714 0.000000 0.432617
-1.774115 0.000000 0.432617
3.601325 0.000000 0.432617
-1.377292 0.000000 0.432617
-7.340329 0.000000 0.432617
-9.457099 0.000000 0.432617
