# vtk DataFile Version 4.0
hesp visualization file
ASCII
DATASET UNSTRUCTURED_GRID
POINTS 90 double
1.061001 1.000000 9.000182
2.060996 1.000000 9.000182
3.060884 1.000000 9.000182
4.054151 1.000000 9.000182
4.945849 1.000000 9.000182
5.939116 1.000000 9.000182
6.939004 1.000000 9.000182
7.939004 1.000000 9.000182
8.938981 1.000000 9.000182
9.938975 1.000000 9.000182
1.061001 2.000000 9.000182
2.060996 2.000000 9.000182
3.060884 2.000000 9.000182
4.054151 2.000000 9.000182
4.945849 2.000000 9.000182
5.939116 2.000000 9.000182
6.939004 2.000000 9.000182
7.939004 2.000000 9.000182
8.938981 2.000000 9.000182
9.938975 2.000000 9.000182
1.061001 3.000000 9.000182
2.060996 3.000000 9.000182
3.060884 3.000000 9.000182
4.054151 3.000000 9.000182
4.945849 3.000000 9.000182
5.939116 3.000000 9.000182
6.939004 3.000000 9.000182
7.939004 3.000000 9.000182
8.938981 3.000000 9.000182
9.938975 3.000000 9.000182
1.061001 4.000000 9.000182
2.060996 4.000000 9.000182
3.060884 4.000000 9.000182
4.054151 4.000000 9.000182
4.945849 4.000000 9.000182
5.939116 4.000000 9.000182
6.939004 4.000000 9.000182
7.939004 4.000000 9.000182
8.938981 4.000000 9.000182
9.938975 4.000000 9.000182
1.061001 5.000000 9.000182
2.060996 5.000000 9.000182
3.060884 5.000000 9.000182
4.054151 5.000000 9.000182
4.945849 5.000000 9.000182
5.939116 5.000000 9.000182
6.939004 5.000000 9.000182
7.939004 5.000000 9.000182
8.938981 5.000000 9.000182
9.938975 5.000000 9.000182
1.061001 6.000000 9.000182
2.060996 6.000000 9.000182
3.060884 6.000000 9.000182
4.054151 6.000000 9.000182
4.945849 6.000000 9.000182
5.939116 6.000000 9.000182
6.939004 6.000000 9.000182
7.939004 6.000000 9.000182
8.938981 6.000000 9.000182
9.938975 6.000000 9.000182
1.061001 7.000000 9.000182
2.060996 7.000000 9.000182
3.060884 7.000000 9.000182
4.054151 7.000000 9.000182
4.945849 7.000000 9.000182
5.939116 7.000000 9.000182
6.939004 7.000000 9.000182
7.939004 7.000000 9.000182
8.938981 7.000000 9.000182
9.938975 7.000000 9.000182
1.061001 8.000000 9.000182
2.060996 8.000000 9.000182
3.060884 8.000000 9.000182
4.054151 8.000000 9.000182
4.945849 8.000000 9.000182
5.939116 8.000000 9.000182
6.939004 8.000000 9.000182
7.939004 8.000000 9.000182
8.938981 8.000000 9.000182
9.938975 8.000000 9.000182
1.061001 9.000000 9.000182
2.060996 9.000000 9.000182
3.060884 9.000000 9.000182
4.054151 9.000000 9.000182
4.945849 9.000000 9.000182
5.939116 9.000000 9.000182
6.939004 9.000000 9.000182
7.939004 9.000000 9.000182
8.938981 9.000000 9.000182
9.938975 9.000000 9.000182
CELLS 0 0
CELL_TYPES 0
POINT_DATA 90
SCALARS m double
LOOKUP_TABLE default
1.000000
1.000000
1.000000
1.000000
1.000000
1.000000
1.000000
1.000000
1.000000
1.000000
1.000000
1.000000
1.000000
1.000000
1.000000
1.000000
1.000000
1.000000
1.000000
1.000000
1.000000
1.000000
1.000000
1.000000
1.000000
1.000000
1.000000
1.000000
1.000000
1.000000
1.000000
1.000000
1.000000
1.000000
1.000000
1.000000
1.000000
1.000000
1.000000
1.000000
1.000000
1.000000
1.000000
1.000000
1.000000
1.000000
1.000000
1.000000
1.000000
1.000000
1.000000
1.000000
1.000000
1.000000
1.000000
1.000000
1.000000
1.000000
1.000000
1.000000
1.000000
1.000000
1.000000
1.000000
1.000000
1.000000
1.000000
1.000000
1.000000
1.000000
1.000000
1.000000
1.000000
1.000000
1.000000
1.000000
1.000000
1.000000
1.000000
1.000000
1.000000
1.000000
1.000000
1.000000
1.000000
1.000000
1.000000
1.000000
1.000000
1.000000
VECTORS v double
9.999787 0.000000 0.059841
9.999249 0.000000 0.059841
9.904202 0.000000 0.059841
6.692439 0.000000 0.059841
-6.692448 0.000000 0.059841
-9.904194 0.000000 0.059841
-9.999050 0.000000 0.059841
-10.000883 0.000000 0.059841
-9.999135 0.000000 0.059841
-9.999986 0.000000 0.059841
9.999787 0.000000 0.059841
9.999249 0.000000 0.059841
9.904202 0.000000 0.059841
6.692439 0.000000 0.059841
-6.692448 0.000000 0.059841
-9.904194 0.000000 0.059841
-9.999050 0.000000 0.059841
-10.000883 0.000000 0.059841
-9.999135 0.000000 0.059841
-9.999986 0.000000 0.059841
9.999787 0.000000 0.059841
9.999249 0.000000 0.059841
9.904202 0.000000 0.059841
6.692439 0.000000 0.059841
-6.692448 0.000000 0.059841
-9.904194 0.000000 0.059841
-9.999050 0.000000 0.059841
-10.000883 0.000000 0.059841
-9.999135 0.000000 0.059841
-9.999986 0.000000 0.059841
9.999787 0.000000 0.059841
9.999249 0.000000 0.059841
9.904202 0.000000 0.059841
6.692439 0.000000 0.059841
-6.692448 0.000000 0.059841
-9.904194 0.000000 0.059841
-9.999050 0.000000 0.059841
-10.000883 0.000000 0.059841
-9.999135 0.000000 0.059841
-9.999986 0.000000 0.059841
9.999787 0.000000 0.059841
9.999249 0.000000 0.059841
9.904202 0.000000 0.059841
6.692439 0.000000 0.059841
-6.692448 0.000000 0.059841
-9.904194 0.000000 0.059841
-9.999050 0.000000 0.059841
-10.000883 0.000000 0.059841
-9.999135 0.000000 0.059841
-9.999986 0.000000 0.059841
9.999787 0.000000 0.059841
9.999249 0.000000 0.059841
9.904202 0.000000 0.059841
6.692439 0.000000 0.059841
-6.692448 0.000000 0.059841
-9.904194 0.000000 0.059841
-9.999050 0.000000 0.059841
-10.000883 0.000000 0.059841
-9.999135 0.000000 0.059841
-9.999986 0.000000 0.059841
9.999787 0.000000 0.059841
9.999249 0.000000 0.059841
9.904202 0.000000 0.059841
6.692439 0.000000 0.059841
-6.692448 0.000000 0.059841
-9.904194 0.000000 0.059841
-9.999050 0.000000 0.059841
-10.000883 0.000000 0.059841
-9.999135 0.000000 0.059841
-9.999986 0.000000 0.059841
9.999787 0.000000 0.059841
9.999249 0.000000 0.059841
9.904202 0.000000 0.059841
6.692439 0.000000 0.059841
-6.692448 0.000000 0.059841
-9.904194 0.000000 0.059841
-9.999050 0.000000 0.059841
-10.000883 0.000000 0.059841
-9.999135 0.000000 0.059841
-9.999986 0.000000 0.059841
9.999787 0.000000 0.059841
9.999249 0.000000 0.059841
9.904202 0.000000 0.059841
6.692439 0.000000 0.059841
-6.692448 0.000000 0.059841
-9.904194 0.000000 0.059841
-9.999050 0.000000 0.059841
-10.000883 0.000000 0.059841
-9.999135 0.000000 0.059841
-9.999986 0.000000 0.059841
