# vtk DataFile Version 4.0
hesp visualization file
ASCII
DATASET UNSTRUCTURED_GRID
POINTS 90 double
1.327286 1.000000 9.005703
2.274786 1.000000 9.005703
3.146551 1.000000 9.005703
4.044830 1.000000 9.005703
4.955169 1.000000 9.005703
5.853441 1.000000 9.005703
6.725091 1.000000 9.005703
7.671303 1.000000 9.005703
8.660433 1.000000 9.005703
9.659157 1.000000 9.005703
1.327286 2.000000 9.005703
2.274786 2.000000 9.005703
3.146551 2.000000 9.005703
4.044830 2.000000 9.005703
4.955169 2.000000 9.005703
5.853441 2.000000 9.005703
6.725091 2.000000 9.005703
7.671303 2.000000 9.005703
8.660433 2.000000 9.005703
9.659157 2.000000 9.005703
1.327286 3.000000 9.005703
2.274786 3.000000 9.005703
3.146551 3.000000 9.005703
4.044830 3.000000 9.005703
4.955169 3.000000 9.005703
5.853441 3.000000 9.005703
6.725091 3.000000 9.005703
7.671303 3.000000 9.005703
8.660433 3.000000 9.005703
9.659157 3.000000 9.005703
1.327286 4.000000 9.005703
2.274786 4.000000 9.005703
3.146551 4.000000 9.005703
4.044830 4.000000 9.005703
4.955169 4.000000 9.005703
5.853441 4.000000 9.005703
6.725091 4.000000 9.005703
7.671303 4.000000 9.005703
8.660433 4.000000 9.005703
9.659157 4.000000 9.005703
1.327286 5.000000 9.005703
2.274786 5.000000 9.005703
3.146551 5.000000 9.005703
4.044830 5.000000 9.005703
4.955169 5.000000 9.005703
5.853441 5.000000 9.005703
6.725091 5.000000 9.005703
7.671303 5.000000 9.005703
8.660433 5.000000 9.005703
9.659157 5.000000 9.005703
1.327286 6.000000 9.005703
2.274786 6.000000 9.005703
3.146551 6.000000 9.005703
4.044830 6.000000 9.005703
4.955169 6.000000 9.005703
5.853441 6.000000 9.005703
6.725091 6.000000 9.005703
7.671303 6.000000 9.005703
8.660433 6.000000 9.005703
9.659157 6.000000 9.005703
1.327286 7.000000 9.005703
2.274786 7.000000 9.005703
3.146551 7.000000 9.005703
4.044830 7.000000 9.005703
4.955169 7.000000 9.005703
5.853441 7.000000 9.005703
6.725091 7.000000 9.005703
7.671303 7.000000 9.005703
8.660433 7.000000 9.005703
9.659157 7.000000 9.005703
1.327286 8.000000 9.005703
2.274786 8.000000 9.005703
3.146551 8.000000 9.005703
4.044830 8.000000 9.005703
4.955169 8.000000 9.005703
5.853441 8.000000 9.005703
6.725091 8.000000 9.005703
7.671303 8.000000 9.005703
8.660433 8.000000 9.005703
9.659157 8.000000 9.005703
1.327286 9.000000 9.005703
2.274786 9.000000 9.005703
3.146551 9.000000 9.005703
4.044830 9.000000 9.005703
4.955169 9.000000 9.005703
5.853441 9.000000 9.005703
6.725091 9.000000 9.005703
7.671303 9.000000 9.005703
8.660433 9.000000 9.005703
9.659157 9.000000 9.005703
CELLS 0 0
CELL_TYPES 0
POINT_DATA 90
SCALARS m double
LOOKUP_TABLE default
1.000000
1.000000
1.000000
1.000000
1.000000
1.000000
1.000000
1.000000
1.000000
1.000000
1.000000
1.000000
1.000000
1.000000
1.000000
1.000000
1.000000
1.000000
1.000000
1.000000
1.000000
1.000000
1.000000
1.000000
1.000000
1.000000
1.000000
1.000000
1.000000
1.000000
1.000000
1.000000
1.000000
1.000000
1.000000
1.000000
1.000000
1.000000
1.000000
1.000000
1.000000
1.000000
1.000000
1.000000
1.000000
1.000000
1.000000
1.000000
1.000000
1.000000
1.000000
1.000000
1.000000
1.000000
1.000000
1.000000
1.000000
1.000000
1.000000
1.000000
1.000000
1.000000
1.000000
1.000000
1.000000
1.000000
1.000000
1.000000
1.000000
1.000000
1.000000
1.000000
1.000000
1.000000
1.000000
1.000000
1.000000
1.000000
1.000000
1.000000
1.000000
1.000000
1.000000
1.000000
1.000000
1.000000
1.000000
1.000000
1.000000
1.000000
VECTORS v double
7.017451 0.000000 0.334519
0.726213 0.000000 0.334519
-3.486690 0.000000 0.334519
3.150218 0.000000 0.334519
-3.150557 0.000000 0.334519
3.484158 0.000000 0.334519
-0.765124 0.000000 0.334519
-7.408822 0.000000 0.334519
-9.604664 0.000000 0.334519
-9.962217 0.000000 0.334519
7.017451 0.000000 0.334519
0.726213 0.000000 0.334519
-3.486690 0.000000 0.334519
3.150218 0.000000 0.334519
-3.150557 0.000000 0.334519
3.484158 0.000000 0.334519
-0.765124 0.000000 0.334519
-7.408822 0.000000 0.334519
-9.604664 0.000000 0.334519
-9.962217 0.000000 0.334519
7.017451 0.000000 0.334519
0.726213 0.000000 0.334519
-3.486690 0.000000 0.334519
3.150218 0.000000 0.334519
-3.150557 0.000000 0.334519
3.484158 0.000000 0.334519
-0.765124 0.000000 0.334519
-7.408822 0.000000 0.334519
-9.604664 0.000000 0.334519
-9.962217 0.000000 0.334519
7.017451 0.000000 0.334519
0.726213 0.000000 0.334519
-3.486690 0.000000 0.334519
3.150218 0.000000 0.334519
-3.150557 0.000000 0.334519
3.484158 0.000000 0.334519
-0.765124 0.000000 0.334519
-7.408822 0.000000 0.334519
-9.604664 0.000000 0.334519
-9.962217 0.000000 0.334519
7.017451 0.000000 0.334519
0.726213 0.000000 0.334519
-3.486690 0.000000 0.334519
3.150218 0.000000 0.334519
-3.150557 0.000000 0.334519
3.484158 0.000000 0.334519
-0.765124 0.000000 0.334519
-7.408822 0.000000 0.334519
-9.604664 0.000000 0.334519
-9.962217 0.000000 0.334519
7.017451 0.000000 0.334519
0.726213 0.000000 0.334519
-3.486690 0.000000 0.334519
3.150218 0.000000 0.334519
-3.150557 0.000000 0.334519
3.484158 0.000000 0.334519
-0.765124 0.000000 0.334519
-7.408822 0.000000 0.334519
-9.604664 0.000000 0.334519
-9.962217 0.000000 0.334519
7.017451 0.000000 0.334519
0.726213 0.000000 0.334519
-3.486690 0.000000 0.334519
3.150218 0.000000 0.334519
-3.150557 0.000000 0.334519
3.484158 0.000000 0.334519
-0.765124 0.000000 0.334519
-7.408822 0.000000 0.334519
-9.604664 0.000000 0.334519
-9.962217 0.000000 0.334519
7.017451 0.000000 0.334519
0.726213 0.000000 0.334519
-3.486690 0.000000 0.334519
3.150218 0.000000 0.334519
-3.150557 0.000000 0.334519
3.484158 0.000000 0.334519
-0.765124 0.000000 0.334519
-7.408822 0.000000 0.334519
-9.604664 0.000000 0.334519
-9.962217 0.000000 0.334519
7.017451 0.000000 0.334519
0.726213 0.000000 0.334519
-3.486690 0.000000 0.334519
3.150218 0.000000 0.334519
-3.150557 0.000000 0.334519
3.484158 0.000000 0.334519
-0.765124 0.000000 0.334519
-7.408822 0.000000 0.334519
-9.604664 0.000000 0.334519
-9.962217 0.000000 0.334519
