# vtk DataFile Version 4.0
hesp visualization file
ASCII
DATASET UNSTRUCTURED_GRID
POINTS 90 double
0.969490 1.000000 9.029157
2.083747 1.000000 9.029157
3.055033 1.000000 9.029157
4.032849 1.000000 9.029157
4.933144 1.000000 9.029157
5.858309 1.000000 9.029157
6.746463 1.000000 9.029157
7.650348 1.000000 9.029157
8.595570 1.000000 9.029157
9.533085 1.000000 9.029157
0.969490 2.000000 9.029157
2.083747 2.000000 9.029157
3.055033 2.000000 9.029157
4.032849 2.000000 9.029157
4.933144 2.000000 9.029157
5.858309 2.000000 9.029157
6.746463 2.000000 9.029157
7.650348 2.000000 9.029157
8.595570 2.000000 9.029157
9.533085 2.000000 9.029157
0.969490 3.000000 9.029157
2.083747 3.000000 9.029157
3.055033 3.000000 9.029157
4.032849 3.000000 9.029157
4.933144 3.000000 9.029157
5.858309 3.000000 9.029157
6.746463 3.000000 9.029157
7.650348 3.000000 9.029157
8.595570 3.000000 9.029157
9.533085 3.000000 9.029157
0.969490 4.000000 9.029157
2.083747 4.000000 9.029157
3.055033 4.000000 9.029157
4.032849 4.000000 9.029157
4.933144 4.000000 9.029157
5.858309 4.000000 9.029157
6.746463 4.000000 9.029157
7.650348 4.000000 9.029157
8.595570 4.000000 9.029157
9.533085 4.000000 9.029157
0.969490 5.000000 9.029157
2.083747 5.000000 9.029157
3.055033 5.000000 9.029157
4.032849 5.000000 9.029157
4.933144 5.000000 9.029157
5.858309 5.000000 9.029157
6.746463 5.000000 9.029157
7.650348 5.000000 9.029157
8.595570 5.000000 9.029157
9.533085 5.000000 9.029157
0.969490 6.000000 9.029157
2.083747 6.000000 9.029157
3.055033 6.000000 9.029157
4.032849 6.000000 9.029157
4.933144 6.000000 9.029157
5.858309 6.000000 9.029157
6.746463 6.000000 9.029157
7.650348 6.000000 9.029157
8.595570 6.000000 9.029157
9.533085 6.000000 9.029157
0.969490 7.000000 9.029157
2.083747 7.000000 9.029157
3.055033 7.000000 9.029157
4.032849 7.000000 9.029157
4.933144 7.000000 9.029157
5.858309 7.000000 9.029157
6.746463 7.000000 9.029157
7.650348 7.000000 9.029157
8.595570 7.000000 9.029157
9.533085 7.000000 9.029157
0.969490 8.000000 9.029157
2.083747 8.000000 9.029157
3.055033 8.000000 9.029157
4.032849 8.000000 9.029157
4.933144 8.000000 9.029157
5.858309 8.000000 9.029157
6.746463 8.000000 9.029157
7.650348 8.000000 9.029157
8.595570 8.000000 9.029157
9.533085 8.000000 9.029157
0.969490 9.000000 9.029157
2.083747 9.000000 9.029157
3.055033 9.000000 9.029157
4.032849 9.000000 9.029157
4.933144 9.000000 9.029157
5.858309 9.000000 9.029157
6.746463 9.000000 9.029157
7.650348 9.000000 9.029157
8.595570 9.000000 9.029157
9.533085 9.000000 9.029157
CELLS 0 0
CELL_TYPES 0
POINT_DATA 90
SCALARS m double
LOOKUP_TABLE default
1.000000
1.000000
1.000000
1.000000
1.000000
1.000000
1.000000
1.000000
1.000000
1.000000
1.000000
1.000000
1.000000
1.000000
1.000000
1.000000
1.000000
1.000000
1.000000
1.000000
1.000000
1.000000
1.000000
1.000000
1.000000
1.000000
1.000000
1.000000
1.000000
1.000000
1.000000
1.000000
1.000000
1.000000
1.000000
1.000000
1.000000
1.000000
1.000000
1.000000
1.000000
1.000000
1.000000
1.000000
1.000000
1.000000
1.000000
1.000000
1.000000
1.000000
1.000000
1.000000
1.000000
1.000000
1.000000
1.000000
1.000000
1.000000
1.000000
1.000000
1.000000
1.000000
1.000000
1.000000
1.000000
1.000000
1.000000
1.000000
1.000000
1.000000
1.000000
1.000000
1.000000
1.000000
1.000000
1.000000
1.000000
1.000000
1.000000
1.000000
1.000000
1.000000
1.000000
1.000000
1.000000
1.000000
1.000000
1.000000
1.000000
1.000000
VECTORS v double
-14.387302 0.000000 0.756338
-10.914170 0.000000 0.756338
-6.028730 0.000000 0.756338
-4.837245 0.000000 0.756338
0.020872 0.000000 0.756338
-1.829604 0.000000 0.756338
2.589875 0.000000 0.756338
-1.303956 0.000000 0.756338
3.993998 0.000000 0.756338
12.696230 0.000000 0.756338
-14.387302 0.000000 0.756338
-10.914170 0.000000 0.756338
-6.028730 0.000000 0.756338
-4.837245 0.000000 0.756338
0.020872 0.000000 0.756338
-1.829604 0.000000 0.756338
2.589875 0.000000 0.756338
-1.303956 0.000000 0.756338
3.993998 0.000000 0.756338
12.696230 0.000000 0.756338
-14.387302 0.000000 0.756338
-10.914170 0.000000 0.756338
-6.028730 0.000000 0.756338
-4.837245 0.000000 0.756338
0.020872 0.000000 0.756338
-1.829604 0.000000 0.756338
2.589875 0.000000 0.756338
-1.303956 0.000000 0.756338
3.993998 0.000000 0.756338
12.696230 0.000000 0.756338
-14.387302 0.000000 0.756338
-10.914170 0.000000 0.756338
-6.028730 0.000000 0.756338
-4.837245 0.000000 0.756338
0.020872 0.000000 0.756338
-1.829604 0.000000 0.756338
2.589875 0.000000 0.756338
-1.303956 0.000000 0.756338
3.993998 0.000000 0.756338
12.696230 0.000000 0.756338
-14.387302 0.000000 0.756338
-10.914170 0.000000 0.756338
-6.028730 0.000000 0.756338
-4.837245 0.000000 0.756338
0.020872 0.000000 0.756338
-1.829604 0.000000 0.756338
2.589875 0.000000 0.756338
-1.303956 0.000000 0.756338
3.993998 0.000000 0.756338
12.696230 0.000000 0.756338
-14.387302 0.000000 0.756338
-10.914170 0.000000 0.756338
-6.028730 0.000000 0.756338
-4.837245 0.000000 0.756338
0.020872 0.000000 0.756338
-1.829604 0.000000 0.756338
2.589875 0.000000 0.756338
-1.303956 0.000000 0.756338
3.993998 0.000000 0.756338
12.696230 0.000000 0.756338
-14.387302 0.000000 0.756338
-10.914170 0.000000 0.756338
-6.028730 0.000000 0.756338
-4.837245 0.000000 0.756338
0.020872 0.000000 0.756338
-1.829604 0.000000 0.756338
2.589875 0.000000 0.756338
-1.303956 0.000000 0.756338
3.993998 0.000000 0.756338
12.696230 0.000000 0.756338
-14.387302 0.000000 0.756338
-10.914170 0.000000 0.756338
-6.028730 0.000000 0.756338
-4.837245 0.000000 0.756338
0.020872 0.000000 0.756338
-1.829604 0.000000 0.756338
2.589875 0.000000 0.756338
-1.303956 0.000000 0.756338
3.993998 0.000000 0.756338
12.696230 0.000000 0.756338
-14.387302 0.000000 0.756338
-10.914170 0.000000 0.756338
-6.028730 0.000000 0.756338
-4.837245 0.000000 0.756338
0.020872 0.000000 0.756338
-1.829604 0.000000 0.756338
2.589875 0.000000 0.756338
-1.303956 0.000000 0.756338
3.993998 0.000000 0.756338
12.696230 0.000000 0.756338
