# vtk DataFile Version 4.0
hesp visualization file
ASCII
DATASET UNSTRUCTURED_GRID
POINTS 90 double
1.084589 1.000000 9.023420
2.158369 1.000000 9.023420
3.106206 1.000000 9.023420
4.047083 1.000000 9.023420
4.943510 1.000000 9.023420
5.858232 1.000000 9.023420
6.736757 1.000000 9.023420
7.665310 1.000000 9.023420
8.560313 1.000000 9.023420
9.457669 1.000000 9.023420
1.084589 2.000000 9.023420
2.158369 2.000000 9.023420
3.106206 2.000000 9.023420
4.047083 2.000000 9.023420
4.943510 2.000000 9.023420
5.858232 2.000000 9.023420
6.736757 2.000000 9.023420
7.665310 2.000000 9.023420
8.560313 2.000000 9.023420
9.457669 2.000000 9.023420
1.084589 3.000000 9.023420
2.158369 3.000000 9.023420
3.106206 3.000000 9.023420
4.047083 3.000000 9.023420
4.943510 3.000000 9.023420
5.858232 3.000000 9.023420
6.736757 3.000000 9.023420
7.665310 3.000000 9.023420
8.560313 3.000000 9.023420
9.457669 3.000000 9.023420
1.084589 4.000000 9.023420
2.158369 4.000000 9.023420
3.106206 4.000000 9.023420
4.047083 4.000000 9.023420
4.943510 4.000000 9.023420
5.858232 4.000000 9.023420
6.736757 4.000000 9.023420
7.665310 4.000000 9.023420
8.560313 4.000000 9.023420
9.457669 4.000000 9.023420
1.084589 5.000000 9.023420
2.158369 5.000000 9.023420
3.106206 5.000000 9.023420
4.047083 5.000000 9.023420
4.943510 5.000000 9.023420
5.858232 5.000000 9.023420
6.736757 5.000000 9.023420
7.665310 5.000000 9.023420
8.560313 5.000000 9.023420
9.457669 5.000000 9.023420
1.084589 6.000000 9.023420
2.158369 6.000000 9.023420
3.106206 6.000000 9.023420
4.047083 6.000000 9.023420
4.943510 6.000000 9.023420
5.858232 6.000000 9.023420
6.736757 6.000000 9.023420
7.665310 6.000000 9.023420
8.560313 6.000000 9.023420
9.457669 6.000000 9.023420
1.084589 7.000000 9.023420
2.158369 7.000000 9.023420
3.106206 7.000000 9.023420
4.047083 7.000000 9.023420
4.943510 7.000000 9.023420
5.858232 7.000000 9.023420
6.736757 7.000000 9.023420
7.665310 7.000000 9.023420
8.560313 7.000000 9.023420
9.457669 7.000000 9.023420
1.084589 8.000000 9.023420
2.158369 8.000000 9.023420
3.106206 8.000000 9.023420
4.047083 8.000000 9.023420
4.943510 8.000000 9.023420
5.858232 8.000000 9.023420
6.736757 8.000000 9.023420
7.665310 8.000000 9.023420
8.560313 8.000000 9.023420
9.457669 8.000000 9.023420
1.084589 9.000000 9.023420
2.158369 9.000000 9.023420
3.106206 9.000000 9.023420
4.047083 9.000000 9.023420
4.943510 9.000000 9.023420
5.858232 9.000000 9.023420
6.736757 9.000000 9.023420
7.665310 9.000000 9.023420
8.560313 9.000000 9.023420
9.457669 9.000000 9.023420
CELLS 0 0
CELL_TYPES 0
POINT_DATA 90
SCALARS m double
LOOKUP_TABLE default
1.000000
1.000000
1.000000
1.000000
1.000000
1.000000
1.000000
1.000000
1.000000
1.000000
1.000000
1.000000
1.000000
1.000000
1.000000
1.000000
1.000000
1.000000
1.000000
1.000000
1.000000
1.000000
1.000000
1.000000
1.000000
1.000000
1.000000
1.000000
1.000000
1.000000
1.000000
1.000000
1.000000
1.000000
1.000000
1.000000
1.000000
1.000000
1.000000
1.000000
1.000000
1.000000
1.000000
1.000000
1.000000
1.000000
1.000000
1.000000
1.000000
1.000000
1.000000
1.000000
1.000000
1.000000
1.000000
1.000000
1.000000
1.000000
1.000000
1.000000
1.000000
1.000000
1.000000
1.000000
1.000000
1.000000
1.000000
1.000000
1.000000
1.000000
1.000000
1.000000
1.000000
1.000000
1.000000
1.000000
1.000000
1.000000
1.000000
1.000000
1.000000
1.000000
1.000000
1.000000
1.000000
1.000000
1.000000
1.000000
1.000000
1.000000
VECTORS v double
-14.387302 0.000000 0.677860
-7.433050 0.000000 0.677860
-6.564430 0.000000 0.677860
0.804257 0.000000 0.677860
-2.496425 0.000000 0.677860
1.823234 0.000000 0.677860
-0.627969 0.000000 0.677860
-1.412463 0.000000 0.677860
4.665136 0.000000 0.677860
5.628979 0.000000 0.677860
-14.387302 0.000000 0.677860
-7.433050 0.000000 0.677860
-6.564430 0.000000 0.677860
0.804257 0.000000 0.677860
-2.496425 0.000000 0.677860
1.823234 0.000000 0.677860
-0.627969 0.000000 0.677860
-1.412463 0.000000 0.677860
4.665136 0.000000 0.677860
5.628979 0.000000 0.677860
-14.387302 0.000000 0.677860
-7.433050 0.000000 0.677860
-6.564430 0.000000 0.677860
0.804257 0.000000 0.677860
-2.496425 0.000000 0.677860
1.823234 0.000000 0.677860
-0.627969 0.000000 0.677860
-1.412463 0.000000 0.677860
4.665136 0.000000 0.677860
5.628979 0.000000 0.677860
-14.387302 0.000000 0.677860
-7.433050 0.000000 0.677860
-6.564430 0.000000 0.677860
0.804257 0.000000 0.677860
-2.496425 0.000000 0.677860
1.823234 0.000000 0.677860
-0.627969 0.000000 0.677860
-1.412463 0.000000 0.677860
4.665136 0.000000 0.677860
5.628979 0.000000 0.677860
-14.387302 0.000000 0.677860
-7.433050 0.000000 0.677860
-6.564430 0.000000 0.677860
0.804257 0.000000 0.677860
-2.496425 0.000000 0.677860
1.823234 0.000000 0.677860
-0.627969 0.000000 0.677860
-1.412463 0.000000 0.677860
4.665136 0.000000 0.677860
5.628979 0.000000 0.677860
-14.387302 0.000000 0.677860
-7.433050 0.000000 0.677860
-6.564430 0.000000 0.677860
0.804257 0.000000 0.677860
-2.496425 0.000000 0.677860
1.823234 0.000000 0.677860
-0.627969 0.000000 0.677860
-1.412463 0.000000 0.677860
4.665136 0.000000 0.677860
5.628979 0.000000 0.677860
-14.387302 0.000000 0.677860
-7.433050 0.000000 0.677860
-6.564430 0.000000 0.677860
0.804257 0.000000 0.677860
-2.496425 0.000000 0.677860
1.823234 0.000000 0.677860
-0.627969 0.000000 0.677860
-1.412463 0.000000 0.677860
4.665136 0.000000 0.677860
5.628979 0.000000 0.677860
-14.387302 0.000000 0.677860
-7.433050 0.000000 0.677860
-6.564430 0.000000 0.677860
0.804257 0.000000 0.677860
-2.496425 0.000000 0.677860
1.823234 0.000000 0.677860
-0.627969 0.000000 0.677860
-1.412463 0.000000 0.677860
4.665136 0.000000 0.677860
5.628979 0.000000 0.677860
-14.387302 0.000000 0.677860
-7.433050 0.000000 0.677860
-6.564430 0.000000 0.677860
0.804257 0.000000 0.677860
-2.496425 0.000000 0.677860
1.823234 0.000000 0.677860
-0.627969 0.000000 0.677860
-1.412463 0.000000 0.677860
4.665136 0.000000 0.677860
5.628979 0.000000 0.677860
