# vtk DataFile Version 4.0
hesp visualization file
ASCII
DATASET UNSTRUCTURED_GRID
POINTS 90 double
1.170951 1.000000 9.001433
2.169848 1.000000 9.001433
3.154454 1.000000 9.001433
4.062965 1.000000 9.001433
4.937036 1.000000 9.001433
5.845547 1.000000 9.001433
6.830157 1.000000 9.001433
7.829040 1.000000 9.001433
8.829002 1.000000 9.001433
9.829003 1.000000 9.001433
1.170951 2.000000 9.001433
2.169848 2.000000 9.001433
3.154454 2.000000 9.001433
4.062965 2.000000 9.001433
4.937036 2.000000 9.001433
5.845547 2.000000 9.001433
6.830157 2.000000 9.001433
7.829040 2.000000 9.001433
8.829002 2.000000 9.001433
9.829003 2.000000 9.001433
1.170951 3.000000 9.001433
2.169848 3.000000 9.001433
3.154454 3.000000 9.001433
4.062965 3.000000 9.001433
4.937036 3.000000 9.001433
5.845547 3.000000 9.001433
6.830157 3.000000 9.001433
7.829040 3.000000 9.001433
8.829002 3.000000 9.001433
9.829003 3.000000 9.001433
1.170951 4.000000 9.001433
2.169848 4.000000 9.001433
3.154454 4.000000 9.001433
4.062965 4.000000 9.001433
4.937036 4.000000 9.001433
5.845547 4.000000 9.001433
6.830157 4.000000 9.001433
7.829040 4.000000 9.001433
8.829002 4.000000 9.001433
9.829003 4.000000 9.001433
1.170951 5.000000 9.001433
2.169848 5.000000 9.001433
3.154454 5.000000 9.001433
4.062965 5.000000 9.001433
4.937036 5.000000 9.001433
5.845547 5.000000 9.001433
6.830157 5.000000 9.001433
7.829040 5.000000 9.001433
8.829002 5.000000 9.001433
9.829003 5.000000 9.001433
1.170951 6.000000 9.001433
2.169848 6.000000 9.001433
3.154454 6.000000 9.001433
4.062965 6.000000 9.001433
4.937036 6.000000 9.001433
5.845547 6.000000 9.001433
6.830157 6.000000 9.001433
7.829040 6.000000 9.001433
8.829002 6.000000 9.001433
9.829003 6.000000 9.001433
1.170951 7.000000 9.001433
2.169848 7.000000 9.001433
3.154454 7.000000 9.001433
4.062965 7.000000 9.001433
4.937036 7.000000 9.001433
5.845547 7.000000 9.001433
6.830157 7.000000 9.001433
7.829040 7.000000 9.001433
8.829002 7.000000 9.001433
9.829003 7.000000 9.001433
1.170951 8.000000 9.001433
2.169848 8.000000 9.001433
3.154454 8.000000 9.001433
4.062965 8.000000 9.001433
4.937036 8.000000 9.001433
5.845547 8.000000 9.001433
6.830157 8.000000 9.001433
7.829040 8.000000 9.001433
8.829002 8.000000 9.001433
9.829003 8.000000 9.001433
1.170951 9.000000 9.001433
2.169848 9.000000 9.001433
3.154454 9.000000 9.001433
4.062965 9.000000 9.001433
4.937036 9.000000 9.001433
5.845547 9.000000 9.001433
6.830157 9.000000 9.001433
7.829040 9.000000 9.001433
8.829002 9.000000 9.001433
9.829003 9.000000 9.001433
CELLS 0 0
CELL_TYPES 0
POINT_DATA 90
SCALARS m double
LOOKUP_TABLE default
1.000000
1.000000
1.000000
1.000000
1.000000
1.000000
1.000000
1.000000
1.000000
1.000000
1.000000
1.000000
1.000000
1.000000
1.000000
1.000000
1.000000
1.000000
1.000000
1.000000
1.000000
1.000000
1.000000
1.000000
1.000000
1.000000
1.000000
1.000000
1.000000
1.000000
1.000000
1.000000
1.000000
1.000000
1.000000
1.000000
1.000000
1.000000
1.000000
1.000000
1.000000
1.000000
1.000000
1.000000
1.000000
1.000000
1.000000
1.000000
1.000000
1.000000
1.000000
1.000000
1.000000
1.000000
1.000000
1.000000
1.000000
1.000000
1.000000
1.000000
1.000000
1.000000
1.000000
1.000000
1.000000
1.000000
1.000000
1.000000
1.000000
1.000000
1.000000
1.000000
1.000000
1.000000
1.000000
1.000000
1.000000
1.000000
1.000000
1.000000
1.000000
1.000000
1.000000
1.000000
1.000000
1.000000
1.000000
1.000000
1.000000
1.000000
VECTORS v double
9.976125 0.000000 0.167751
9.556962 0.000000 0.167751
5.762896 0.000000 0.167751
-3.804724 0.000000 0.167751
3.804871 0.000000 0.167751
-5.762977 0.000000 0.167751
-9.556858 0.000000 0.167751
-9.979478 0.000000 0.167751
-9.998286 0.000000 0.167751
-9.998590 0.000000 0.167751
9.976125 0.000000 0.167751
9.556962 0.000000 0.167751
5.762896 0.000000 0.167751
-3.804724 0.000000 0.167751
3.804871 0.000000 0.167751
-5.762977 0.000000 0.167751
-9.556858 0.000000 0.167751
-9.979478 0.000000 0.167751
-9.998286 0.000000 0.167751
-9.998590 0.000000 0.167751
9.976125 0.000000 0.167751
9.556962 0.000000 0.167751
5.762896 0.000000 0.167751
-3.804724 0.000000 0.167751
3.804871 0.000000 0.167751
-5.762977 0.000000 0.167751
-9.556858 0.000000 0.167751
-9.979478 0.000000 0.167751
-9.998286 0.000000 0.167751
-9.998590 0.000000 0.167751
9.976125 0.000000 0.167751
9.556962 0.000000 0.167751
5.762896 0.000000 0.167751
-3.804724 0.000000 0.167751
3.804871 0.000000 0.167751
-5.762977 0.000000 0.167751
-9.556858 0.000000 0.167751
-9.979478 0.000000 0.167751
-9.998286 0.000000 0.167751
-9.998590 0.000000 0.167751
9.976125 0.000000 0.167751
9.556962 0.000000 0.167751
5.762896 0.000000 0.167751
-3.804724 0.000000 0.167751
3.804871 0.000000 0.167751
-5.762977 0.000000 0.167751
-9.556858 0.000000 0.167751
-9.979478 0.000000 0.167751
-9.998286 0.000000 0.167751
-9.998590 0.000000 0.167751
9.976125 0.000000 0.167751
9.556962 0.000000 0.167751
5.762896 0.000000 0.167751
-3.804724 0.000000 0.167751
3.804871 0.000000 0.167751
-5.762977 0.000000 0.167751
-9.556858 0.000000 0.167751
-9.979478 0.000000 0.167751
-9.998286 0.000000 0.167751
-9.998590 0.000000 0.167751
9.976125 0.000000 0.167751
9.556962 0.000000 0.167751
5.762896 0.000000 0.167751
-3.804724 0.000000 0.167751
3.804871 0.000000 0.167751
-5.762977 0.000000 0.167751
-9.556858 0.000000 0.167751
-9.979478 0.000000 0.167751
-9.998286 0.000000 0.167751
-9.998590 0.000000 0.167751
9.976125 0.000000 0.167751
9.556962 0.000000 0.167751
5.762896 0.000000 0.167751
-3.804724 0.000000 0.167751
3.804871 0.000000 0.167751
-5.762977 0.000000 0.167751
-9.556858 0.000000 0.167751
-9.979478 0.000000 0.167751
-9.998286 0.000000 0.167751
-9.998590 0.000000 0.167751
9.976125 0.000000 0.167751
9.556962 0.000000 0.167751
5.762896 0.000000 0.167751
-3.804724 0.000000 0.167751
3.804871 0.000000 0.167751
-5.762977 0.000000 0.167751
-9.556858 0.000000 0.167751
-9.979478 0.000000 0.167751
-9.998286 0.000000 0.167751
-9.998590 0.000000 0.167751
