# vtk DataFile Version 4.0
hesp visualization file
ASCII
DATASET UNSTRUCTURED_GRID
POINTS 90 double
1.305086 1.000000 9.013829
2.220041 1.000000 9.013829
3.157464 1.000000 9.013829
4.044981 1.000000 9.013829
4.954749 1.000000 9.013829
5.840458 1.000000 9.013829
6.766831 1.000000 9.013829
7.636739 1.000000 9.013829
8.527479 1.000000 9.013829
9.484213 1.000000 9.013829
1.305086 2.000000 9.013829
2.220041 2.000000 9.013829
3.157464 2.000000 9.013829
4.044981 2.000000 9.013829
4.954749 2.000000 9.013829
5.840458 2.000000 9.013829
6.766831 2.000000 9.013829
7.636739 2.000000 9.013829
8.527479 2.000000 9.013829
9.484213 2.000000 9.013829
1.305086 3.000000 9.013829
2.220041 3.000000 9.013829
3.157464 3.000000 9.013829
4.044981 3.000000 9.013829
4.954749 3.000000 9.013829
5.840458 3.000000 9.013829
6.766831 3.000000 9.013829
7.636739 3.000000 9.013829
8.527479 3.000000 9.013829
9.484213 3.000000 9.013829
1.305086 4.000000 9.013829
2.220041 4.000000 9.013829
3.157464 4.000000 9.013829
4.044981 4.000000 9.013829
4.954749 4.000000 9.013829
5.840458 4.000000 9.013829
6.766831 4.000000 9.013829
7.636739 4.000000 9.013829
8.527479 4.000000 9.013829
9.484213 4.000000 9.013829
1.305086 5.000000 9.013829
2.220041 5.000000 9.013829
3.157464 5.000000 9.013829
4.044981 5.000000 9.013829
4.954749 5.000000 9.013829
5.840458 5.000000 9.013829
6.766831 5.000000 9.013829
7.636739 5.000000 9.013829
8.527479 5.000000 9.013829
9.484213 5.000000 9.013829
1.305086 6.000000 9.013829
2.220041 6.000000 9.013829
3.157464 6.000000 9.013829
4.044981 6.000000 9.013829
4.954749 6.000000 9.013829
5.840458 6.000000 9.013829
6.766831 6.000000 9.013829
7.636739 6.000000 9.013829
8.527479 6.000000 9.013829
9.484213 6.000000 9.013829
1.305086 7.000000 9.013829
2.220041 7.000000 9.013829
3.157464 7.000000 9.013829
4.044981 7.000000 9.013829
4.954749 7.000000 9.013829
5.840458 7.000000 9.013829
6.766831 7.000000 9.013829
7.636739 7.000000 9.013829
8.527479 7.000000 9.013829
9.484213 7.000000 9.013829
1.305086 8.000000 9.013829
2.220041 8.000000 9.013829
3.157464 8.000000 9.013829
4.044981 8.000000 9.013829
4.954749 8.000000 9.013829
5.840458 8.000000 9.013829
6.766831 8.000000 9.013829
7.636739 8.000000 9.013829
8.527479 8.000000 9.013829
9.484213 8.000000 9.013829
1.305086 9.000000 9.013829
2.220041 9.000000 9.013829
3.157464 9.000000 9.013829
4.044981 9.000000 9.013829
4.954749 9.000000 9.013829
5.840458 9.000000 9.013829
6.766831 9.000000 9.013829
7.636739 9.000000 9.013829
8.527479 9.000000 9.013829
9.484213 9.000000 9.013829
CELLS 0 0
CELL_TYPES 0
POINT_DATA 90
SCALARS m double
LOOKUP_TABLE default
1.000000
1.000000
1.000000
1.000000
1.000000
1.000000
1.000000
1.000000
1.000000
1.000000
1.000000
1.000000
1.000000
1.000000
1.000000
1.000000
1.000000
1.000000
1.000000
1.000000
1.000000
1.000000
1.000000
1.000000
1.000000
1.000000
1.000000
1.000000
1.000000
1.000000
1.000000
1.000000
1.000000
1.000000
1.000000
1.000000
1.000000
1.000000
1.000000
1.000000
1.000000
1.000000
1.000000
1.000000
1.000000
1.000000
1.000000
1.000000
1.000000
1.000000
1.000000
1.000000
1.000000
1.000000
1.000000
1.000000
1.000000
1.000000
1.000000
1.000000
1.000000
1.000000
1.000000
1.000000
1.000000
1.000000
1.000000
1.000000
1.000000
1.000000
1.000000
1.000000
1.000000
1.000000
1.000000
1.000000
1.000000
1.000000
1.000000
1.000000
1.000000
1.000000
1.000000
1.000000
1.000000
1.000000
1.000000
1.000000
1.000000
1.000000
VECTORS v double
-10.790628 0.000000 0.520904
-2.541922 0.000000 0.520904
1.585698 0.000000 0.520904
-2.575217 0.000000 0.520904
2.503006 0.000000 0.520904
-2.051208 0.000000 0.520904
0.199119 0.000000 0.520904
3.261988 0.000000 0.520904
-2.402108 0.000000 0.520904
-7.188761 0.000000 0.520904
-10.790628 0.000000 0.520904
-2.541922 0.000000 0.520904
1.585698 0.000000 0.520904
-2.575217 0.000000 0.520904
2.503006 0.000000 0.520904
-2.051208 0.000000 0.520904
0.199119 0.000000 0.520904
3.261988 0.000000 0.520904
-2.402108 0.000000 0.520904
-7.188761 0.000000 0.520904
-10.790628 0.000000 0.520904
-2.541922 0.000000 0.520904
1.585698 0.000000 0.520904
-2.575217 0.000000 0.520904
2.503006 0.000000 0.520904
-2.051208 0.000000 0.520904
0.199119 0.000000 0.520904
3.261988 0.000000 0.520904
-2.402108 0.000000 0.520904
-7.188761 0.000000 0.520904
-10.790628 0.000000 0.520904
-2.541922 0.000000 0.520904
1.585698 0.000000 0.520904
-2.575217 0.000000 0.520904
2.503006 0.000000 0.520904
-2.051208 0.000000 0.520904
0.199119 0.000000 0.520904
3.261988 0.000000 0.520904
-2.402108 0.000000 0.520904
-7.188761 0.000000 0.520904
-10.790628 0.000000 0.520904
-2.541922 0.000000 0.520904
1.585698 0.000000 0.520904
-2.575217 0.000000 0.520904
2.503006 0.000000 0.520904
-2.051208 0.000000 0.520904
0.199119 0.000000 0.520904
3.261988 0.000000 0.520904
-2.402108 0.000000 0.520904
-7.188761 0.000000 0.520904
-10.790628 0.000000 0.520904
-2.541922 0.000000 0.520904
1.585698 0.000000 0.520904
-2.575217 0.000000 0.520904
2.503006 0.000000 0.520904
-2.051208 0.000000 0.520904
0.199119 0.000000 0.520904
3.261988 0.000000 0.520904
-2.402108 0.000000 0.520904
-7.188761 0.000000 0.520904
-10.790628 0.000000 0.520904
-2.541922 0.000000 0.520904
1.585698 0.000000 0.520904
-2.575217 0.000000 0.520904
2.503006 0.000000 0.520904
-2.051208 0.000000 0.520904
0.199119 0.000000 0.520904
3.261988 0.000000 0.520904
-2.402108 0.000000 0.520904
-7.188761 0.000000 0.520904
-10.790628 0.000000 0.520904
-2.541922 0.000000 0.520904
1.585698 0.000000 0.520904
-2.575217 0.000000 0.520904
2.503006 0.000000 0.520904
-2.051208 0.000000 0.520904
0.199119 0.000000 0.520904
3.261988 0.000000 0.520904
-2.402108 0.000000 0.520904
-7.188761 0.000000 0.520904
-10.790628 0.000000 0.520904
-2.541922 0.000000 0.520904
1.585698 0.000000 0.520904
-2.575217 0.000000 0.520904
2.503006 0.000000 0.520904
-2.051208 0.000000 0.520904
0.199119 0.000000 0.520904
3.261988 0.000000 0.520904
-2.402108 0.000000 0.520904
-7.188761 0.000000 0.520904
