# vtk DataFile Version 4.0
hesp visualization file
ASCII
DATASET UNSTRUCTURED_GRID
POINTS 90 double
1.021001 1.000000 9.000021
2.020998 1.000000 9.000021
3.020998 1.000000 9.000021
4.020735 1.000000 9.000021
4.979265 1.000000 9.000021
5.979002 1.000000 9.000021
6.979002 1.000000 9.000021
7.979002 1.000000 9.000021
8.978992 1.000000 9.000021
9.978992 1.000000 9.000021
1.021001 2.000000 9.000021
2.020998 2.000000 9.000021
3.020998 2.000000 9.000021
4.020735 2.000000 9.000021
4.979265 2.000000 9.000021
5.979002 2.000000 9.000021
6.979002 2.000000 9.000021
7.979002 2.000000 9.000021
8.978992 2.000000 9.000021
9.978992 2.000000 9.000021
1.021001 3.000000 9.000021
2.020998 3.000000 9.000021
3.020998 3.000000 9.000021
4.020735 3.000000 9.000021
4.979265 3.000000 9.000021
5.979002 3.000000 9.000021
6.979002 3.000000 9.000021
7.979002 3.000000 9.000021
8.978992 3.000000 9.000021
9.978992 3.000000 9.000021
1.021001 4.000000 9.000021
2.020998 4.000000 9.000021
3.020998 4.000000 9.000021
4.020735 4.000000 9.000021
4.979265 4.000000 9.000021
5.979002 4.000000 9.000021
6.979002 4.000000 9.000021
7.979002 4.000000 9.000021
8.978992 4.000000 9.000021
9.978992 4.000000 9.000021
1.021001 5.000000 9.000021
2.020998 5.000000 9.000021
3.020998 5.000000 9.000021
4.020735 5.000000 9.000021
4.979265 5.000000 9.000021
5.979002 5.000000 9.000021
6.979002 5.000000 9.000021
7.979002 5.000000 9.000021
8.978992 5.000000 9.000021
9.978992 5.000000 9.000021
1.021001 6.000000 9.000021
2.020998 6.000000 9.000021
3.020998 6.000000 9.000021
4.020735 6.000000 9.000021
4.979265 6.000000 9.000021
5.979002 6.000000 9.000021
6.979002 6.000000 9.000021
7.979002 6.000000 9.000021
8.978992 6.000000 9.000021
9.978992 6.000000 9.000021
1.021001 7.000000 9.000021
2.020998 7.000000 9.000021
3.020998 7.000000 9.000021
4.020735 7.000000 9.000021
4.979265 7.000000 9.000021
5.979002 7.000000 9.000021
6.979002 7.000000 9.000021
7.979002 7.000000 9.000021
8.978992 7.000000 9.000021
9.978992 7.000000 9.000021
1.021001 8.000000 9.000021
2.020998 8.000000 9.000021
3.020998 8.000000 9.000021
4.020735 8.000000 9.000021
4.979265 8.000000 9.000021
5.979002 8.000000 9.000021
6.979002 8.000000 9.000021
7.979002 8.000000 9.000021
8.978992 8.000000 9.000021
9.978992 8.000000 9.000021
1.021001 9.000000 9.000021
2.020998 9.000000 9.000021
3.020998 9.000000 9.000021
4.020735 9.000000 9.000021
4.979265 9.000000 9.000021
5.979002 9.000000 9.000021
6.979002 9.000000 9.000021
7.979002 9.000000 9.000021
8.978992 9.000000 9.000021
9.978992 9.000000 9.000021
CELLS 0 0
CELL_TYPES 0
POINT_DATA 90
SCALARS m double
LOOKUP_TABLE default
1.000000
1.000000
1.000000
1.000000
1.000000
1.000000
1.000000
1.000000
1.000000
1.000000
1.000000
1.000000
1.000000
1.000000
1.000000
1.000000
1.000000
1.000000
1.000000
1.000000
1.000000
1.000000
1.000000
1.000000
1.000000
1.000000
1.000000
1.000000
1.000000
1.000000
1.000000
1.000000
1.000000
1.000000
1.000000
1.000000
1.000000
1.000000
1.000000
1.000000
1.000000
1.000000
1.000000
1.000000
1.000000
1.000000
1.000000
1.000000
1.000000
1.000000
1.000000
1.000000
1.000000
1.000000
1.000000
1.000000
1.000000
1.000000
1.000000
1.000000
1.000000
1.000000
1.000000
1.000000
1.000000
1.000000
1.000000
1.000000
1.000000
1.000000
1.000000
1.000000
1.000000
1.000000
1.000000
1.000000
1.000000
1.000000
1.000000
1.000000
1.000000
1.000000
1.000000
1.000000
1.000000
1.000000
1.000000
1.000000
1.000000
1.000000
VECTORS v double
9.999976 0.000000 0.020601
10.000024 0.000000 0.020601
9.998933 0.000000 0.020601
9.603233 0.000000 0.020601
-9.603233 0.000000 0.020601
-9.998933 0.000000 0.020601
-10.000000 0.000000 0.020601
-10.000108 0.000000 0.020601
-9.999892 0.000000 0.020601
-10.000000 0.000000 0.020601
9.999976 0.000000 0.020601
10.000024 0.000000 0.020601
9.998933 0.000000 0.020601
9.603233 0.000000 0.020601
-9.603233 0.000000 0.020601
-9.998933 0.000000 0.020601
-10.000000 0.000000 0.020601
-10.000108 0.000000 0.020601
-9.999892 0.000000 0.020601
-10.000000 0.000000 0.020601
9.999976 0.000000 0.020601
10.000024 0.000000 0.020601
9.998933 0.000000 0.020601
9.603233 0.000000 0.020601
-9.603233 0.000000 0.020601
-9.998933 0.000000 0.020601
-10.000000 0.000000 0.020601
-10.000108 0.000000 0.020601
-9.999892 0.000000 0.020601
-10.000000 0.000000 0.020601
9.999976 0.000000 0.020601
10.000024 0.000000 0.020601
9.998933 0.000000 0.020601
9.603233 0.000000 0.020601
-9.603233 0.000000 0.020601
-9.998933 0.000000 0.020601
-10.000000 0.000000 0.020601
-10.000108 0.000000 0.020601
-9.999892 0.000000 0.020601
-10.000000 0.000000 0.020601
9.999976 0.000000 0.020601
10.000024 0.000000 0.020601
9.998933 0.000000 0.020601
9.603233 0.000000 0.020601
-9.603233 0.000000 0.020601
-9.998933 0.000000 0.020601
-10.000000 0.000000 0.020601
-10.000108 0.000000 0.020601
-9.999892 0.000000 0.020601
-10.000000 0.000000 0.020601
9.999976 0.000000 0.020601
10.000024 0.000000 0.020601
9.998933 0.000000 0.020601
9.603233 0.000000 0.020601
-9.603233 0.000000 0.020601
-9.998933 0.000000 0.020601
-10.000000 0.000000 0.020601
-10.000108 0.000000 0.020601
-9.999892 0.000000 0.020601
-10.000000 0.000000 0.020601
9.999976 0.000000 0.020601
10.000024 0.000000 0.020601
9.998933 0.000000 0.020601
9.603233 0.000000 0.020601
-9.603233 0.000000 0.020601
-9.998933 0.000000 0.020601
-10.000000 0.000000 0.020601
-10.000108 0.000000 0.020601
-9.999892 0.000000 0.020601
-10.000000 0.000000 0.020601
9.999976 0.000000 0.020601
10.000024 0.000000 0.020601
9.998933 0.000000 0.020601
9.603233 0.000000 0.020601
-9.603233 0.000000 0.020601
-9.998933 0.000000 0.020601
-10.000000 0.000000 0.020601
-10.000108 0.000000 0.020601
-9.999892 0.000000 0.020601
-10.000000 0.000000 0.020601
9.999976 0.000000 0.020601
10.000024 0.000000 0.020601
9.998933 0.000000 0.020601
9.603233 0.000000 0.020601
-9.603233 0.000000 0.020601
-9.998933 0.000000 0.020601
-10.000000 0.000000 0.020601
-10.000108 0.000000 0.020601
-9.999892 0.000000 0.020601
-10.000000 0.000000 0.020601
