# vtk DataFile Version 4.0
hesp visualization file
ASCII
DATASET UNSTRUCTURED_GRID
POINTS 90 double
0.739314 1.000000 9.042514
1.897671 1.000000 9.042514
2.937098 1.000000 9.042514
3.907220 1.000000 9.042514
4.903675 1.000000 9.042514
5.828351 1.000000 9.042514
6.768377 1.000000 9.042514
7.711981 1.000000 9.042514
8.679482 1.000000 9.042514
9.764857 1.000000 9.042514
0.739314 2.000000 9.042514
1.897671 2.000000 9.042514
2.937098 2.000000 9.042514
3.907220 2.000000 9.042514
4.903675 2.000000 9.042514
5.828351 2.000000 9.042514
6.768377 2.000000 9.042514
7.711981 2.000000 9.042514
8.679482 2.000000 9.042514
9.764857 2.000000 9.042514
0.739314 3.000000 9.042514
1.897671 3.000000 9.042514
2.937098 3.000000 9.042514
3.907220 3.000000 9.042514
4.903675 3.000000 9.042514
5.828351 3.000000 9.042514
6.768377 3.000000 9.042514
7.711981 3.000000 9.042514
8.679482 3.000000 9.042514
9.764857 3.000000 9.042514
0.739314 4.000000 9.042514
1.897671 4.000000 9.042514
2.937098 4.000000 9.042514
3.907220 4.000000 9.042514
4.903675 4.000000 9.042514
5.828351 4.000000 9.042514
6.768377 4.000000 9.042514
7.711981 4.000000 9.042514
8.679482 4.000000 9.042514
9.764857 4.000000 9.042514
0.739314 5.000000 9.042514
1.897671 5.000000 9.042514
2.937098 5.000000 9.042514
3.907220 5.000000 9.042514
4.903675 5.000000 9.042514
5.828351 5.000000 9.042514
6.768377 5.000000 9.042514
7.711981 5.000000 9.042514
8.679482 5.000000 9.042514
9.764857 5.000000 9.042514
0.739314 6.000000 9.042514
1.897671 6.000000 9.042514
2.937098 6.000000 9.042514
3.907220 6.000000 9.042514
4.903675 6.000000 9.042514
5.828351 6.000000 9.042514
6.768377 6.000000 9.042514
7.711981 6.000000 9.042514
8.679482 6.000000 9.042514
9.764857 6.000000 9.042514
0.739314 7.000000 9.042514
1.897671 7.000000 9.042514
2.937098 7.000000 9.042514
3.907220 7.000000 9.042514
4.903675 7.000000 9.042514
5.828351 7.000000 9.042514
6.768377 7.000000 9.042514
7.711981 7.000000 9.042514
8.679482 7.000000 9.042514
9.764857 7.000000 9.042514
0.739314 8.000000 9.042514
1.897671 8.000000 9.042514
2.937098 8.000000 9.042514
3.907220 8.000000 9.042514
4.903675 8.000000 9.042514
5.828351 8.000000 9.042514
6.768377 8.000000 9.042514
7.711981 8.000000 9.042514
8.679482 8.000000 9.042514
9.764857 8.000000 9.042514
0.739314 9.000000 9.042514
1.897671 9.000000 9.042514
2.937098 9.000000 9.042514
3.907220 9.000000 9.042514
4.903675 9.000000 9.042514
5.828351 9.000000 9.042514
6.768377 9.000000 9.042514
7.711981 9.000000 9.042514
8.679482 9.000000 9.042514
9.764857 9.000000 9.042514
CELLS 0 0
CELL_TYPES 0
POINT_DATA 90
SCALARS m double
LOOKUP_TABLE default
1.000000
1.000000
1.000000
1.000000
1.000000
1.000000
1.000000
1.000000
1.000000
1.000000
1.000000
1.000000
1.000000
1.000000
1.000000
1.000000
1.000000
1.000000
1.000000
1.000000
1.000000
1.000000
1.000000
1.000000
1.000000
1.000000
1.000000
1.000000
1.000000
1.000000
1.000000
1.000000
1.000000
1.000000
1.000000
1.000000
1.000000
1.000000
1.000000
1.000000
1.000000
1.000000
1.000000
1.000000
1.000000
1.000000
1.000000
1.000000
1.000000
1.000000
1.000000
1.000000
1.000000
1.000000
1.000000
1.000000
1.000000
1.000000
1.000000
1.000000
1.000000
1.000000
1.000000
1.000000
1.000000
1.000000
1.000000
1.000000
1.000000
1.000000
1.000000
1.000000
1.000000
1.000000
1.000000
1.000000
1.000000
1.000000
1.000000
1.000000
1.000000
1.000000
1.000000
1.000000
1.000000
1.000000
1.000000
1.000000
1.000000
1.000000
VECTORS v double
-14.299576 0.000000 0.913294
-11.721501 0.000000 0.913294
-9.737517 0.000000 0.913294
-7.595572 0.000000 0.913294
-6.839748 0.000000 0.913294
-0.144825 0.000000 0.913294
-0.338267 0.000000 0.913294
8.547180 0.000000 0.913294
7.454425 0.000000 0.913294
14.675385 0.000000 0.913294
-14.299576 0.000000 0.913294
-11.721501 0.000000 0.913294
-9.737517 0.000000 0.913294
-7.595572 0.000000 0.913294
-6.839748 0.000000 0.913294
-0.144825 0.000000 0.913294
-0.338267 0.000000 0.913294
8.547180 0.000000 0.913294
7.454425 0.000000 0.913294
14.675385 0.000000 0.913294
-14.299576 0.000000 0.913294
-11.721501 0.000000 0.913294
-9.737517 0.000000 0.913294
-7.595572 0.000000 0.913294
-6.839748 0.000000 0.913294
-0.144825 0.000000 0.913294
-0.338267 0.000000 0.913294
8.547180 0.000000 0.913294
7.454425 0.000000 0.913294
14.675385 0.000000 0.913294
-14.299576 0.000000 0.913294
-11.721501 0.000000 0.913294
-9.737517 0.000000 0.913294
-7.595572 0.000000 0.913294
-6.839748 0.000000 0.913294
-0.144825 0.000000 0.913294
-0.338267 0.000000 0.913294
8.547180 0.000000 0.913294
7.454425 0.000000 0.913294
14.675385 0.000000 0.913294
-14.299576 0.000000 0.913294
-11.721501 0.000000 0.913294
-9.737517 0.000000 0.913294
-7.595572 0.000000 0.913294
-6.839748 0.000000 0.913294
-0.144825 0.000000 0.913294
-0.338267 0.000000 0.913294
8.547180 0.000000 0.913294
7.454425 0.000000 0.913294
14.675385 0.000000 0.913294
-14.299576 0.000000 0.913294
-11.721501 0.000000 0.913294
-9.737517 0.000000 0.913294
-7.595572 0.000000 0.913294
-6.839748 0.000000 0.913294
-0.144825 0.000000 0.913294
-0.338267 0.000000 0.913294
8.547180 0.000000 0.913294
7.454425 0.000000 0.913294
14.675385 0.000000 0.913294
-14.299576 0.000000 0.913294
-11.721501 0.000000 0.913294
-9.737517 0.000000 0.913294
-7.595572 0.000000 0.913294
-6.839748 0.000000 0.913294
-0.144825 0.000000 0.913294
-0.338267 0.000000 0.913294
8.547180 0.000000 0.913294
7.454425 0.000000 0.913294
14.675385 0.000000 0.913294
-14.299576 0.000000 0.913294
-11.721501 0.000000 0.913294
-9.737517 0.000000 0.913294
-7.595572 0.000000 0.913294
-6.839748 0.000000 0.913294
-0.144825 0.000000 0.913294
-0.338267 0.000000 0.913294
8.547180 0.000000 0.913294
7.454425 0.000000 0.913294
14.675385 0.000000 0.913294
-14.299576 0.000000 0.913294
-11.721501 0.000000 0.913294
-9.737517 0.000000 0.913294
-7.595572 0.000000 0.913294
-6.839748 0.000000 0.913294
-0.144825 0.000000 0.913294
-0.338267 0.000000 0.913294
8.547180 0.000000 0.913294
7.454425 0.000000 0.913294
14.675385 0.000000 0.913294
