# vtk DataFile Version 4.0
hesp visualization file
ASCII
DATASET UNSTRUCTURED_GRID
POINTS 90 double
1.041002 1.000000 9.000082
2.040997 1.000000 9.000082
3.040984 1.000000 9.000082
4.038912 1.000000 9.000082
4.961088 1.000000 9.000082
5.959016 1.000000 9.000082
6.959003 1.000000 9.000082
7.959003 1.000000 9.000082
8.958983 1.000000 9.000082
9.958983 1.000000 9.000082
1.041002 2.000000 9.000082
2.040997 2.000000 9.000082
3.040984 2.000000 9.000082
4.038912 2.000000 9.000082
4.961088 2.000000 9.000082
5.959016 2.000000 9.000082
6.959003 2.000000 9.000082
7.959003 2.000000 9.000082
8.958983 2.000000 9.000082
9.958983 2.000000 9.000082
1.041002 3.000000 9.000082
2.040997 3.000000 9.000082
3.040984 3.000000 9.000082
4.038912 3.000000 9.000082
4.961088 3.000000 9.000082
5.959016 3.000000 9.000082
6.959003 3.000000 9.000082
7.959003 3.000000 9.000082
8.958983 3.000000 9.000082
9.958983 3.000000 9.000082
1.041002 4.000000 9.000082
2.040997 4.000000 9.000082
3.040984 4.000000 9.000082
4.038912 4.000000 9.000082
4.961088 4.000000 9.000082
5.959016 4.000000 9.000082
6.959003 4.000000 9.000082
7.959003 4.000000 9.000082
8.958983 4.000000 9.000082
9.958983 4.000000 9.000082
1.041002 5.000000 9.000082
2.040997 5.000000 9.000082
3.040984 5.000000 9.000082
4.038912 5.000000 9.000082
4.961088 5.000000 9.000082
5.959016 5.000000 9.000082
6.959003 5.000000 9.000082
7.959003 5.000000 9.000082
8.958983 5.000000 9.000082
9.958983 5.000000 9.000082
1.041002 6.000000 9.000082
2.040997 6.000000 9.000082
3.040984 6.000000 9.000082
4.038912 6.000000 9.000082
4.961088 6.000000 9.000082
5.959016 6.000000 9.000082
6.959003 6.000000 9.000082
7.959003 6.000000 9.000082
8.958983 6.000000 9.000082
9.958983 6.000000 9.000082
1.041002 7.000000 9.000082
2.040997 7.000000 9.000082
3.040984 7.000000 9.000082
4.038912 7.000000 9.000082
4.961088 7.000000 9.000082
5.959016 7.000000 9.000082
6.959003 7.000000 9.000082
7.959003 7.000000 9.000082
8.958983 7.000000 9.000082
9.958983 7.000000 9.000082
1.041002 8.000000 9.000082
2.040997 8.000000 9.000082
3.040984 8.000000 9.000082
4.038912 8.000000 9.000082
4.961088 8.000000 9.000082
5.959016 8.000000 9.000082
6.959003 8.000000 9.000082
7.959003 8.000000 9.000082
8.958983 8.000000 9.000082
9.958983 8.000000 9.000082
1.041002 9.000000 9.000082
2.040997 9.000000 9.000082
3.040984 9.000000 9.000082
4.038912 9.000000 9.000082
4.961088 9.000000 9.000082
5.959016 9.000000 9.000082
6.959003 9.000000 9.000082
7.959003 9.000000 9.000082
8.958983 9.000000 9.000082
9.958983 9.000000 9.000082
CELLS 0 0
CELL_TYPES 0
POINT_DATA 90
SCALARS m double
LOOKUP_TABLE default
1.000000
1.000000
1.000000
1.000000
1.000000
1.000000
1.000000
1.000000
1.000000
1.000000
1.000000
1.000000
1.000000
1.000000
1.000000
1.000000
1.000000
1.000000
1.000000
1.000000
1.000000
1.000000
1.000000
1.000000
1.000000
1.000000
1.000000
1.000000
1.000000
1.000000
1.000000
1.000000
1.000000
1.000000
1.000000
1.000000
1.000000
1.000000
1.000000
1.000000
1.000000
1.000000
1.000000
1.000000
1.000000
1.000000
1.000000
1.000000
1.000000
1.000000
1.000000
1.000000
1.000000
1.000000
1.000000
1.000000
1.000000
1.000000
1.000000
1.000000
1.000000
1.000000
1.000000
1.000000
1.000000
1.000000
1.000000
1.000000
1.000000
1.000000
1.000000
1.000000
1.000000
1.000000
1.000000
1.000000
1.000000
1.000000
1.000000
1.000000
1.000000
1.000000
1.000000
1.000000
1.000000
1.000000
1.000000
1.000000
1.000000
1.000000
VECTORS v double
9.999902 0.000000 0.040221
10.000037 0.000000 0.040221
9.981152 0.000000 0.040221
8.456953 0.000000 0.040221
-8.456961 0.000000 0.040221
-9.981144 0.000000 0.040221
-9.999945 0.000000 0.040221
-10.000408 0.000000 0.040221
-9.999592 0.000000 0.040221
-10.000000 0.000000 0.040221
9.999902 0.000000 0.040221
10.000037 0.000000 0.040221
9.981152 0.000000 0.040221
8.456953 0.000000 0.040221
-8.456961 0.000000 0.040221
-9.981144 0.000000 0.040221
-9.999945 0.000000 0.040221
-10.000408 0.000000 0.040221
-9.999592 0.000000 0.040221
-10.000000 0.000000 0.040221
9.999902 0.000000 0.040221
10.000037 0.000000 0.040221
9.981152 0.000000 0.040221
8.456953 0.000000 0.040221
-8.456961 0.000000 0.040221
-9.981144 0.000000 0.040221
-9.999945 0.000000 0.040221
-10.000408 0.000000 0.040221
-9.999592 0.000000 0.040221
-10.000000 0.000000 0.040221
9.999902 0.000000 0.040221
10.000037 0.000000 0.040221
9.981152 0.000000 0.040221
8.456953 0.000000 0.040221
-8.456961 0.000000 0.040221
-9.981144 0.000000 0.040221
-9.999945 0.000000 0.040221
-10.000408 0.000000 0.040221
-9.999592 0.000000 0.040221
-10.000000 0.000000 0.040221
9.999902 0.000000 0.040221
10.000037 0.000000 0.040221
9.981152 0.000000 0.040221
8.456953 0.000000 0.040221
-8.456961 0.000000 0.040221
-9.981144 0.000000 0.040221
-9.999945 0.000000 0.040221
-10.000408 0.000000 0.040221
-9.999592 0.000000 0.040221
-10.000000 0.000000 0.040221
9.999902 0.000000 0.040221
10.000037 0.000000 0.040221
9.981152 0.000000 0.040221
8.456953 0.000000 0.040221
-8.456961 0.000000 0.040221
-9.981144 0.000000 0.040221
-9.999945 0.000000 0.040221
-10.000408 0.000000 0.040221
-9.999592 0.000000 0.040221
-10.000000 0.000000 0.040221
9.999902 0.000000 0.040221
10.000037 0.000000 0.040221
9.981152 0.000000 0.040221
8.456953 0.000000 0.040221
-8.456961 0.000000 0.040221
-9.981144 0.000000 0.040221
-9.999945 0.000000 0.040221
-10.000408 0.000000 0.040221
-9.999592 0.000000 0.040221
-10.000000 0.000000 0.040221
9.999902 0.000000 0.040221
10.000037 0.000000 0.040221
9.981152 0.000000 0.040221
8.456953 0.000000 0.040221
-8.456961 0.000000 0.040221
-9.981144 0.000000 0.040221
-9.999945 0.000000 0.040221
-10.000408 0.000000 0.040221
-9.999592 0.000000 0.040221
-10.000000 0.000000 0.040221
9.999902 0.000000 0.040221
10.000037 0.000000 0.040221
9.981152 0.000000 0.040221
8.456953 0.000000 0.040221
-8.456961 0.000000 0.040221
-9.981144 0.000000 0.040221
-9.999945 0.000000 0.040221
-10.000408 0.000000 0.040221
-9.999592 0.000000 0.040221
-10.000000 0.000000 0.040221
