# vtk DataFile Version 4.0
hesp visualization file
ASCII
DATASET UNSTRUCTURED_GRID
POINTS 90 double
0.676439 1.000000 9.047203
1.839061 1.000000 9.047203
2.885218 1.000000 9.047203
3.871924 1.000000 9.047203
4.862058 1.000000 9.047203
5.828027 1.000000 9.047203
6.768910 1.000000 9.047203
7.755786 1.000000 9.047203
8.720989 1.000000 9.047203
9.829614 1.000000 9.047203
0.676439 2.000000 9.047203
1.839061 2.000000 9.047203
2.885218 2.000000 9.047203
3.871924 2.000000 9.047203
4.862058 2.000000 9.047203
5.828027 2.000000 9.047203
6.768910 2.000000 9.047203
7.755786 2.000000 9.047203
8.720989 2.000000 9.047203
9.829614 2.000000 9.047203
0.676439 3.000000 9.047203
1.839061 3.000000 9.047203
2.885218 3.000000 9.047203
3.871924 3.000000 9.047203
4.862058 3.000000 9.047203
5.828027 3.000000 9.047203
6.768910 3.000000 9.047203
7.755786 3.000000 9.047203
8.720989 3.000000 9.047203
9.829614 3.000000 9.047203
0.676439 4.000000 9.047203
1.839061 4.000000 9.047203
2.885218 4.000000 9.047203
3.871924 4.000000 9.047203
4.862058 4.000000 9.047203
5.828027 4.000000 9.047203
6.768910 4.000000 9.047203
7.755786 4.000000 9.047203
8.720989 4.000000 9.047203
9.829614 4.000000 9.047203
0.676439 5.000000 9.047203
1.839061 5.000000 9.047203
2.885218 5.000000 9.047203
3.871924 5.000000 9.047203
4.862058 5.000000 9.047203
5.828027 5.000000 9.047203
6.768910 5.000000 9.047203
7.755786 5.000000 9.047203
8.720989 5.000000 9.047203
9.829614 5.000000 9.047203
0.676439 6.000000 9.047203
1.839061 6.000000 9.047203
2.885218 6.000000 9.047203
3.871924 6.000000 9.047203
4.862058 6.000000 9.047203
5.828027 6.000000 9.047203
6.768910 6.000000 9.047203
7.755786 6.000000 9.047203
8.720989 6.000000 9.047203
9.829614 6.000000 9.047203
0.676439 7.000000 9.047203
1.839061 7.000000 9.047203
2.885218 7.000000 9.047203
3.871924 7.000000 9.047203
4.862058 7.000000 9.047203
5.828027 7.000000 9.047203
6.768910 7.000000 9.047203
7.755786 7.000000 9.047203
8.720989 7.000000 9.047203
9.829614 7.000000 9.047203
0.676439 8.000000 9.047203
1.839061 8.000000 9.047203
2.885218 8.000000 9.047203
3.871924 8.000000 9.047203
4.862058 8.000000 9.047203
5.828027 8.000000 9.047203
6.768910 8.000000 9.047203
7.755786 8.000000 9.047203
8.720989 8.000000 9.047203
9.829614 8.000000 9.047203
0.676439 9.000000 9.047203
1.839061 9.000000 9.047203
2.885218 9.000000 9.047203
3.871924 9.000000 9.047203
4.862058 9.000000 9.047203
5.828027 9.000000 9.047203
6.768910 9.000000 9.047203
7.755786 9.000000 9.047203
8.720989 9.000000 9.047203
9.829614 9.000000 9.047203
CELLS 0 0
CELL_TYPES 0
POINT_DATA 90
SCALARS m double
LOOKUP_TABLE default
1.000000
1.000000
1.000000
1.000000
1.000000
1.000000
1.000000
1.000000
1.000000
1.000000
1.000000
1.000000
1.000000
1.000000
1.000000
1.000000
1.000000
1.000000
1.000000
1.000000
1.000000
1.000000
1.000000
1.000000
1.000000
1.000000
1.000000
1.000000
1.000000
1.000000
1.000000
1.000000
1.000000
1.000000
1.000000
1.000000
1.000000
1.000000
1.000000
1.000000
1.000000
1.000000
1.000000
1.000000
1.000000
1.000000
1.000000
1.000000
1.000000
1.000000
1.000000
1.000000
1.000000
1.000000
1.000000
1.000000
1.000000
1.000000
1.000000
1.000000
1.000000
1.000000
1.000000
1.000000
1.000000
1.000000
1.000000
1.000000
1.000000
1.000000
1.000000
1.000000
1.000000
1.000000
1.000000
1.000000
1.000000
1.000000
1.000000
1.000000
1.000000
1.000000
1.000000
1.000000
1.000000
1.000000
1.000000
1.000000
1.000000
1.000000
VECTORS v double
-9.769435 0.000000 0.962342
-11.721501 0.000000 0.962342
-10.876078 0.000000 0.962342
-6.713247 0.000000 0.962342
-9.408871 0.000000 0.962342
-0.327542 0.000000 0.962342
0.914220 0.000000 0.962342
8.587482 0.000000 0.962342
9.169725 0.000000 0.962342
10.145244 0.000000 0.962342
-9.769435 0.000000 0.962342
-11.721501 0.000000 0.962342
-10.876078 0.000000 0.962342
-6.713247 0.000000 0.962342
-9.408871 0.000000 0.962342
-0.327542 0.000000 0.962342
0.914220 0.000000 0.962342
8.587482 0.000000 0.962342
9.169725 0.000000 0.962342
10.145244 0.000000 0.962342
-9.769435 0.000000 0.962342
-11.721501 0.000000 0.962342
-10.876078 0.000000 0.962342
-6.713247 0.000000 0.962342
-9.408871 0.000000 0.962342
-0.327542 0.000000 0.962342
0.914220 0.000000 0.962342
8.587482 0.000000 0.962342
9.169725 0.000000 0.962342
10.145244 0.000000 0.962342
-9.769435 0.000000 0.962342
-11.721501 0.000000 0.962342
-10.876078 0.000000 0.962342
-6.713247 0.000000 0.962342
-9.408871 0.000000 0.962342
-0.327542 0.000000 0.962342
0.914220 0.000000 0.962342
8.587482 0.000000 0.962342
9.169725 0.000000 0.962342
10.145244 0.000000 0.962342
-9.769435 0.000000 0.962342
-11.721501 0.000000 0.962342
-10.876078 0.000000 0.962342
-6.713247 0.000000 0.962342
-9.408871 0.000000 0.962342
-0.327542 0.000000 0.962342
0.914220 0.000000 0.962342
8.587482 0.000000 0.962342
9.169725 0.000000 0.962342
10.145244 0.000000 0.962342
-9.769435 0.000000 0.962342
-11.721501 0.000000 0.962342
-10.876078 0.000000 0.962342
-6.713247 0.000000 0.962342
-9.408871 0.000000 0.962342
-0.327542 0.000000 0.962342
0.914220 0.000000 0.962342
8.587482 0.000000 0.962342
9.169725 0.000000 0.962342
10.145244 0.000000 0.962342
-9.769435 0.000000 0.962342
-11.721501 0.000000 0.962342
-10.876078 0.000000 0.962342
-6.713247 0.000000 0.962342
-9.408871 0.000000 0.962342
-0.327542 0.000000 0.962342
0.914220 0.000000 0.962342
8.587482 0.000000 0.962342
9.169725 0.000000 0.962342
10.145244 0.000000 0.962342
-9.769435 0.000000 0.962342
-11.721501 0.000000 0.962342
-10.876078 0.000000 0.962342
-6.713247 0.000000 0.962342
-9.408871 0.000000 0.962342
-0.327542 0.000000 0.962342
0.914220 0.000000 0.962342
8.587482 0.000000 0.962342
9.169725 0.000000 0.962342
10.145244 0.000000 0.962342
-9.769435 0.000000 0.962342
-11.721501 0.000000 0.962342
-10.876078 0.000000 0.962342
-6.713247 0.000000 0.962342
-9.408871 0.000000 0.962342
-0.327542 0.000000 0.962342
0.914220 0.000000 0.962342
8.587482 0.000000 0.962342
9.169725 0.000000 0.962342
10.145244 0.000000 0.962342
