# vtk DataFile Version 4.0
hesp visualization file
ASCII
DATASET UNSTRUCTURED_GRID
POINTS 90 double
0.667458 1.000000 9.048170
1.827340 1.000000 9.048170
2.874281 1.000000 9.048170
3.865220 1.000000 9.048170
4.852541 1.000000 9.048170
5.827566 1.000000 9.048170
6.770061 1.000000 9.048170
7.764257 1.000000 9.048170
8.730332 1.000000 9.048170
9.838971 1.000000 9.048170
0.667458 2.000000 9.048170
1.827340 2.000000 9.048170
2.874281 2.000000 9.048170
3.865220 2.000000 9.048170
4.852541 2.000000 9.048170
5.827566 2.000000 9.048170
6.770061 2.000000 9.048170
7.764257 2.000000 9.048170
8.730332 2.000000 9.048170
9.838971 2.000000 9.048170
0.667458 3.000000 9.048170
1.827340 3.000000 9.048170
2.874281 3.000000 9.048170
3.865220 3.000000 9.048170
4.852541 3.000000 9.048170
5.827566 3.000000 9.048170
6.770061 3.000000 9.048170
7.764257 3.000000 9.048170
8.730332 3.000000 9.048170
9.838971 3.000000 9.048170
0.667458 4.000000 9.048170
1.827340 4.000000 9.048170
2.874281 4.000000 9.048170
3.865220 4.000000 9.048170
4.852541 4.000000 9.048170
5.827566 4.000000 9.048170
6.770061 4.000000 9.048170
7.764257 4.000000 9.048170
8.730332 4.000000 9.048170
9.838971 4.000000 9.048170
0.667458 5.000000 9.048170
1.827340 5.000000 9.048170
2.874281 5.000000 9.048170
3.865220 5.000000 9.048170
4.852541 5.000000 9.048170
5.827566 5.000000 9.048170
6.770061 5.000000 9.048170
7.764257 5.000000 9.048170
8.730332 5.000000 9.048170
9.838971 5.000000 9.048170
0.667458 6.000000 9.048170
1.827340 6.000000 9.048170
2.874281 6.000000 9.048170
3.865220 6.000000 9.048170
4.852541 6.000000 9.048170
5.827566 6.000000 9.048170
6.770061 6.000000 9.048170
7.764257 6.000000 9.048170
8.730332 6.000000 9.048170
9.838971 6.000000 9.048170
0.667458 7.000000 9.048170
1.827340 7.000000 9.048170
2.874281 7.000000 9.048170
3.865220 7.000000 9.048170
4.852541 7.000000 9.048170
5.827566 7.000000 9.048170
6.770061 7.000000 9.048170
7.764257 7.000000 9.048170
8.730332 7.000000 9.048170
9.838971 7.000000 9.048170
0.667458 8.000000 9.048170
1.827340 8.000000 9.048170
2.874281 8.000000 9.048170
3.865220 8.000000 9.048170
4.852541 8.000000 9.048170
5.827566 8.000000 9.048170
6.770061 8.000000 9.048170
7.764257 8.000000 9.048170
8.730332 8.000000 9.048170
9.838971 8.000000 9.048170
0.667458 9.000000 9.048170
1.827340 9.000000 9.048170
2.874281 9.000000 9.048170
3.865220 9.000000 9.048170
4.852541 9.000000 9.048170
5.827566 9.000000 9.048170
6.770061 9.000000 9.048170
7.764257 9.000000 9.048170
8.730332 9.000000 9.048170
9.838971 9.000000 9.048170
CELLS 0 0
CELL_TYPES 0
POINT_DATA 90
SCALARS m double
LOOKUP_TABLE default
1.000000
1.000000
1.000000
1.000000
1.000000
1.000000
1.000000
1.000000
1.000000
1.000000
1.000000
1.000000
1.000000
1.000000
1.000000
1.000000
1.000000
1.000000
1.000000
1.000000
1.000000
1.000000
1.000000
1.000000
1.000000
1.000000
1.000000
1.000000
1.000000
1.000000
1.000000
1.000000
1.000000
1.000000
1.000000
1.000000
1.000000
1.000000
1.000000
1.000000
1.000000
1.000000
1.000000
1.000000
1.000000
1.000000
1.000000
1.000000
1.000000
1.000000
1.000000
1.000000
1.000000
1.000000
1.000000
1.000000
1.000000
1.000000
1.000000
1.000000
1.000000
1.000000
1.000000
1.000000
1.000000
1.000000
1.000000
1.000000
1.000000
1.000000
1.000000
1.000000
1.000000
1.000000
1.000000
1.000000
1.000000
1.000000
1.000000
1.000000
1.000000
1.000000
1.000000
1.000000
1.000000
1.000000
1.000000
1.000000
1.000000
1.000000
VECTORS v double
-8.161839 0.000000 0.972152
-11.721501 0.000000 0.972152
-10.992181 0.000000 0.972152
-6.706893 0.000000 0.972152
-9.603139 0.000000 0.972152
-0.608844 0.000000 0.972152
1.398147 0.000000 0.972152
8.343934 0.000000 0.972152
9.514665 0.000000 0.972152
8.537647 0.000000 0.972152
-8.161839 0.000000 0.972152
-11.721501 0.000000 0.972152
-10.992181 0.000000 0.972152
-6.706893 0.000000 0.972152
-9.603139 0.000000 0.972152
-0.608844 0.000000 0.972152
1.398147 0.000000 0.972152
8.343934 0.000000 0.972152
9.514665 0.000000 0.972152
8.537647 0.000000 0.972152
-8.161839 0.000000 0.972152
-11.721501 0.000000 0.972152
-10.992181 0.000000 0.972152
-6.706893 0.000000 0.972152
-9.603139 0.000000 0.972152
-0.608844 0.000000 0.972152
1.398147 0.000000 0.972152
8.343934 0.000000 0.972152
9.514665 0.000000 0.972152
8.537647 0.000000 0.972152
-8.161839 0.000000 0.972152
-11.721501 0.000000 0.972152
-10.992181 0.000000 0.972152
-6.706893 0.000000 0.972152
-9.603139 0.000000 0.972152
-0.608844 0.000000 0.972152
1.398147 0.000000 0.972152
8.343934 0.000000 0.972152
9.514665 0.000000 0.972152
8.537647 0.000000 0.972152
-8.161839 0.000000 0.972152
-11.721501 0.000000 0.972152
-10.992181 0.000000 0.972152
-6.706893 0.000000 0.972152
-9.603139 0.000000 0.972152
-0.608844 0.000000 0.972152
1.398147 0.000000 0.972152
8.343934 0.000000 0.972152
9.514665 0.000000 0.972152
8.537647 0.000000 0.972152
-8.161839 0.000000 0.972152
-11.721501 0.000000 0.972152
-10.992181 0.000000 0.972152
-6.706893 0.000000 0.972152
-9.603139 0.000000 0.972152
-0.608844 0.000000 0.972152
1.398147 0.000000 0.972152
8.343934 0.000000 0.972152
9.514665 0.000000 0.972152
8.537647 0.000000 0.972152
-8.161839 0.000000 0.972152
-11.721501 0.000000 0.972152
-10.992181 0.000000 0.972152
-6.706893 0.000000 0.972152
-9.603139 0.000000 0.972152
-0.608844 0.000000 0.972152
1.398147 0.000000 0.972152
8.343934 0.000000 0.972152
9.514665 0.000000 0.972152
8.537647 0.000000 0.972152
-8.161839 0.000000 0.972152
-11.721501 0.000000 0.972152
-10.992181 0.000000 0.972152
-6.706893 0.000000 0.972152
-9.603139 0.000000 0.972152
-0.608844 0.000000 0.972152
1.398147 0.000000 0.972152
8.343934 0.000000 0.972152
9.514665 0.000000 0.972152
8.537647 0.000000 0.972152
-8.161839 0.000000 0.972152
-11.721501 0.000000 0.972152
-10.992181 0.000000 0.972152
-6.706893 0.000000 0.972152
-9.603139 0.000000 0.972152
-0.608844 0.000000 0.972152
1.398147 0.000000 0.972152
8.343934 0.000000 0.972152
9.514665 0.000000 0.972152
8.537647 0.000000 0.972152
