# vtk DataFile Version 4.0
hesp visualization file
ASCII
DATASET UNSTRUCTURED_GRID
POINTS 90 double
1.361638 1.000000 9.009110
2.256128 1.000000 9.009110
3.134469 1.000000 9.009110
4.064617 1.000000 9.009110
4.935369 1.000000 9.009110
5.865376 1.000000 9.009110
6.742299 1.000000 9.009110
7.626719 1.000000 9.009110
8.580702 1.000000 9.009110
9.570727 1.000000 9.009110
1.361638 2.000000 9.009110
2.256128 2.000000 9.009110
3.134469 2.000000 9.009110
4.064617 2.000000 9.009110
4.935369 2.000000 9.009110
5.865376 2.000000 9.009110
6.742299 2.000000 9.009110
7.626719 2.000000 9.009110
8.580702 2.000000 9.009110
9.570727 2.000000 9.009110
1.361638 3.000000 9.009110
2.256128 3.000000 9.009110
3.134469 3.000000 9.009110
4.064617 3.000000 9.009110
4.935369 3.000000 9.009110
5.865376 3.000000 9.009110
6.742299 3.000000 9.009110
7.626719 3.000000 9.009110
8.580702 3.000000 9.009110
9.570727 3.000000 9.009110
1.361638 4.000000 9.009110
2.256128 4.000000 9.009110
3.134469 4.000000 9.009110
4.064617 4.000000 9.009110
4.935369 4.000000 9.009110
5.865376 4.000000 9.009110
6.742299 4.000000 9.009110
7.626719 4.000000 9.009110
8.580702 4.000000 9.009110
9.570727 4.000000 9.009110
1.361638 5.000000 9.009110
2.256128 5.000000 9.009110
3.134469 5.000000 9.009110
4.064617 5.000000 9.009110
4.935369 5.000000 9.009110
5.865376 5.000000 9.009110
6.742299 5.000000 9.009110
7.626719 5.000000 9.009110
8.580702 5.000000 9.009110
9.570727 5.000000 9.009110
1.361638 6.000000 9.009110
2.256128 6.000000 9.009110
3.134469 6.000000 9.009110
4.064617 6.000000 9.009110
4.935369 6.000000 9.009110
5.865376 6.000000 9.009110
6.742299 6.000000 9.009110
7.626719 6.000000 9.009110
8.580702 6.000000 9.009110
9.570727 6.000000 9.009110
1.361638 7.000000 9.009110
2.256128 7.000000 9.009110
3.134469 7.000000 9.009110
4.064617 7.000000 9.009110
4.935369 7.000000 9.009110
5.865376 7.000000 9.009110
6.742299 7.000000 9.009110
7.626719 7.000000 9.009110
8.580702 7.000000 9.009110
9.570727 7.000000 9.009110
1.361638 8.000000 9.009110
2.256128 8.000000 9.009110
3.134469 8.000000 9.009110
4.064617 8.000000 9.009110
4.935369 8.000000 9.009110
5.865376 8.000000 9.009110
6.742299 8.000000 9.009110
7.626719 8.000000 9.009110
8.580702 8.000000 9.009110
9.570727 8.000000 9.009110
1.361638 9.000000 9.009110
2.256128 9.000000 9.009110
3.134469 9.000000 9.009110
4.064617 9.000000 9.009110
4.935369 9.000000 9.009110
5.865376 9.000000 9.009110
6.742299 9.000000 9.009110
7.626719 9.000000 9.009110
8.580702 9.000000 9.009110
9.570727 9.000000 9.009110
CELLS 0 0
CELL_TYPES 0
POINT_DATA 90
SCALARS m double
LOOKUP_TABLE default
1.000000
1.000000
1.000000
1.000000
1.000000
1.000000
1.000000
1.000000
1.000000
1.000000
1.000000
1.000000
1.000000
1.000000
1.000000
1.000000
1.000000
1.000000
1.000000
1.000000
1.000000
1.000000
1.000000
1.000000
1.000000
1.000000
1.000000
1.000000
1.000000
1.000000
1.000000
1.000000
1.000000
1.000000
1.000000
1.000000
1.000000
1.000000
1.000000
1.000000
1.000000
1.000000
1.000000
1.000000
1.000000
1.000000
1.000000
1.000000
1.000000
1.000000
1.000000
1.000000
1.000000
1.000000
1.000000
1.000000
1.000000
1.000000
1.000000
1.000000
1.000000
1.000000
1.000000
1.000000
1.000000
1.000000
1.000000
1.000000
1.000000
1.000000
1.000000
1.000000
1.000000
1.000000
1.000000
1.000000
1.000000
1.000000
1.000000
1.000000
1.000000
1.000000
1.000000
1.000000
1.000000
1.000000
1.000000
1.000000
1.000000
1.000000
VECTORS v double
-0.206326 0.000000 0.422807
-3.959026 0.000000 0.422807
1.223205 0.000000 0.422807
0.099755 0.000000 0.422807
-0.104178 0.000000 0.422807
-1.269372 0.000000 0.422807
3.568200 0.000000 0.422807
-2.071708 0.000000 0.422807
-7.716038 0.000000 0.422807
-9.564548 0.000000 0.422807
-0.206326 0.000000 0.422807
-3.959026 0.000000 0.422807
1.223205 0.000000 0.422807
0.099755 0.000000 0.422807
-0.104178 0.000000 0.422807
-1.269372 0.000000 0.422807
3.568200 0.000000 0.422807
-2.071708 0.000000 0.422807
-7.716038 0.000000 0.422807
-9.564548 0.000000 0.422807
-0.206326 0.000000 0.422807
-3.959026 0.000000 0.422807
1.223205 0.000000 0.422807
0.099755 0.000000 0.422807
-0.104178 0.000000 0.422807
-1.269372 0.000000 0.422807
3.568200 0.000000 0.422807
-2.071708 0.000000 0.422807
-7.716038 0.000000 0.422807
-9.564548 0.000000 0.422807
-0.206326 0.000000 0.422807
-3.959026 0.000000 0.422807
1.223205 0.000000 0.422807
0.099755 0.000000 0.422807
-0.104178 0.000000 0.422807
-1.269372 0.000000 0.422807
3.568200 0.000000 0.422807
-2.071708 0.000000 0.422807
-7.716038 0.000000 0.422807
-9.564548 0.000000 0.422807
-0.206326 0.000000 0.422807
-3.959026 0.000000 0.422807
1.223205 0.000000 0.422807
0.099755 0.000000 0.422807
-0.104178 0.000000 0.422807
-1.269372 0.000000 0.422807
3.568200 0.000000 0.422807
-2.071708 0.000000 0.422807
-7.716038 0.000000 0.422807
-9.564548 0.000000 0.422807
-0.206326 0.000000 0.422807
-3.959026 0.000000 0.422807
1.223205 0.000000 0.422807
0.099755 0.000000 0.422807
-0.104178 0.000000 0.422807
-1.269372 0.000000 0.422807
3.568200 0.000000 0.422807
-2.071708 0.000000 0.422807
-7.716038 0.000000 0.422807
-9.564548 0.000000 0.422807
-0.206326 0.000000 0.422807
-3.959026 0.000000 0.422807
1.223205 0.000000 0.422807
0.099755 0.000000 0.422807
-0.104178 0.000000 0.422807
-1.269372 0.000000 0.422807
3.568200 0.000000 0.422807
-2.071708 0.000000 0.422807
-7.716038 0.000000 0.422807
-9.564548 0.000000 0.422807
-0.206326 0.000000 0.422807
-3.959026 0.000000 0.422807
1.223205 0.000000 0.422807
0.099755 0.000000 0.422807
-0.104178 0.000000 0.422807
-1.269372 0.000000 0.422807
3.568200 0.000000 0.422807
-2.071708 0.000000 0.422807
-7.716038 0.000000 0.422807
-9.564548 0.000000 0.422807
-0.206326 0.000000 0.422807
-3.959026 0.000000 0.422807
1.223205 0.000000 0.422807
0.099755 0.000000 0.422807
-0.104178 0.000000 0.422807
-1.269372 0.000000 0.422807
3.568200 0.000000 0.422807
-2.071708 0.000000 0.422807
-7.716038 0.000000 0.422807
-9.564548 0.000000 0.422807
