# vtk DataFile Version 4.0
hesp visualization file
ASCII
DATASET UNSTRUCTURED_GRID
POINTS 90 double
1.055814 1.000000 9.024796
2.142472 1.000000 9.024796
3.093006 1.000000 9.024796
4.047687 1.000000 9.024796
4.938961 1.000000 9.024796
5.861086 1.000000 9.024796
6.736512 1.000000 9.024796
7.661898 1.000000 9.024796
8.569637 1.000000 9.024796
9.470963 1.000000 9.024796
1.055814 2.000000 9.024796
2.142472 2.000000 9.024796
3.093006 2.000000 9.024796
4.047687 2.000000 9.024796
4.938961 2.000000 9.024796
5.861086 2.000000 9.024796
6.736512 2.000000 9.024796
7.661898 2.000000 9.024796
8.569637 2.000000 9.024796
9.470963 2.000000 9.024796
1.055814 3.000000 9.024796
2.142472 3.000000 9.024796
3.093006 3.000000 9.024796
4.047687 3.000000 9.024796
4.938961 3.000000 9.024796
5.861086 3.000000 9.024796
6.736512 3.000000 9.024796
7.661898 3.000000 9.024796
8.569637 3.000000 9.024796
9.470963 3.000000 9.024796
1.055814 4.000000 9.024796
2.142472 4.000000 9.024796
3.093006 4.000000 9.024796
4.047687 4.000000 9.024796
4.938961 4.000000 9.024796
5.861086 4.000000 9.024796
6.736512 4.000000 9.024796
7.661898 4.000000 9.024796
8.569637 4.000000 9.024796
9.470963 4.000000 9.024796
1.055814 5.000000 9.024796
2.142472 5.000000 9.024796
3.093006 5.000000 9.024796
4.047687 5.000000 9.024796
4.938961 5.000000 9.024796
5.861086 5.000000 9.024796
6.736512 5.000000 9.024796
7.661898 5.000000 9.024796
8.569637 5.000000 9.024796
9.470963 5.000000 9.024796
1.055814 6.000000 9.024796
2.142472 6.000000 9.024796
3.093006 6.000000 9.024796
4.047687 6.000000 9.024796
4.938961 6.000000 9.024796
5.861086 6.000000 9.024796
6.736512 6.000000 9.024796
7.661898 6.000000 9.024796
8.569637 6.000000 9.024796
9.470963 6.000000 9.024796
1.055814 7.000000 9.024796
2.142472 7.000000 9.024796
3.093006 7.000000 9.024796
4.047687 7.000000 9.024796
4.938961 7.000000 9.024796
5.861086 7.000000 9.024796
6.736512 7.000000 9.024796
7.661898 7.000000 9.024796
8.569637 7.000000 9.024796
9.470963 7.000000 9.024796
1.055814 8.000000 9.024796
2.142472 8.000000 9.024796
3.093006 8.000000 9.024796
4.047687 8.000000 9.024796
4.938961 8.000000 9.024796
5.861086 8.000000 9.024796
6.736512 8.000000 9.024796
7.661898 8.000000 9.024796
8.569637 8.000000 9.024796
9.470963 8.000000 9.024796
1.055814 9.000000 9.024796
2.142472 9.000000 9.024796
3.093006 9.000000 9.024796
4.047687 9.000000 9.024796
4.938961 9.000000 9.024796
5.861086 9.000000 9.024796
6.736512 9.000000 9.024796
7.661898 9.000000 9.024796
8.569637 9.000000 9.024796
9.470963 9.000000 9.024796
CELLS 0 0
CELL_TYPES 0
POINT_DATA 90
SCALARS m double
LOOKUP_TABLE default
1.000000
1.000000
1.000000
1.000000
1.000000
1.000000
1.000000
1.000000
1.000000
1.000000
1.000000
1.000000
1.000000
1.000000
1.000000
1.000000
1.000000
1.000000
1.000000
1.000000
1.000000
1.000000
1.000000
1.000000
1.000000
1.000000
1.000000
1.000000
1.000000
1.000000
1.000000
1.000000
1.000000
1.000000
1.000000
1.000000
1.000000
1.000000
1.000000
1.000000
1.000000
1.000000
1.000000
1.000000
1.000000
1.000000
1.000000
1.000000
1.000000
1.000000
1.000000
1.000000
1.000000
1.000000
1.000000
1.000000
1.000000
1.000000
1.000000
1.000000
1.000000
1.000000
1.000000
1.000000
1.000000
1.000000
1.000000
1.000000
1.000000
1.000000
1.000000
1.000000
1.000000
1.000000
1.000000
1.000000
1.000000
1.000000
1.000000
1.000000
1.000000
1.000000
1.000000
1.000000
1.000000
1.000000
1.000000
1.000000
1.000000
1.000000
VECTORS v double
-14.387302 0.000000 0.697479
-8.455287 0.000000 0.697479
-6.597021 0.000000 0.697479
-0.263873 0.000000 0.697479
-2.008071 0.000000 0.697479
0.994414 0.000000 0.697479
0.383072 0.000000 0.697479
-1.947025 0.000000 0.697479
4.628168 0.000000 0.697479
7.652888 0.000000 0.697479
-14.387302 0.000000 0.697479
-8.455287 0.000000 0.697479
-6.597021 0.000000 0.697479
-0.263873 0.000000 0.697479
-2.008071 0.000000 0.697479
0.994414 0.000000 0.697479
0.383072 0.000000 0.697479
-1.947025 0.000000 0.697479
4.628168 0.000000 0.697479
7.652888 0.000000 0.697479
-14.387302 0.000000 0.697479
-8.455287 0.000000 0.697479
-6.597021 0.000000 0.697479
-0.263873 0.000000 0.697479
-2.008071 0.000000 0.697479
0.994414 0.000000 0.697479
0.383072 0.000000 0.697479
-1.947025 0.000000 0.697479
4.628168 0.000000 0.697479
7.652888 0.000000 0.697479
-14.387302 0.000000 0.697479
-8.455287 0.000000 0.697479
-6.597021 0.000000 0.697479
-0.263873 0.000000 0.697479
-2.008071 0.000000 0.697479
0.994414 0.000000 0.697479
0.383072 0.000000 0.697479
-1.947025 0.000000 0.697479
4.628168 0.000000 0.697479
7.652888 0.000000 0.697479
-14.387302 0.000000 0.697479
-8.455287 0.000000 0.697479
-6.597021 0.000000 0.697479
-0.263873 0.000000 0.697479
-2.008071 0.000000 0.697479
0.994414 0.000000 0.697479
0.383072 0.000000 0.697479
-1.947025 0.000000 0.697479
4.628168 0.000000 0.697479
7.652888 0.000000 0.697479
-14.387302 0.000000 0.697479
-8.455287 0.000000 0.697479
-6.597021 0.000000 0.697479
-0.263873 0.000000 0.697479
-2.008071 0.000000 0.697479
0.994414 0.000000 0.697479
0.383072 0.000000 0.697479
-1.947025 0.000000 0.697479
4.628168 0.000000 0.697479
7.652888 0.000000 0.697479
-14.387302 0.000000 0.697479
-8.455287 0.000000 0.697479
-6.597021 0.000000 0.697479
-0.263873 0.000000 0.697479
-2.008071 0.000000 0.697479
0.994414 0.000000 0.697479
0.383072 0.000000 0.697479
-1.947025 0.000000 0.697479
4.628168 0.000000 0.697479
7.652888 0.000000 0.697479
-14.387302 0.000000 0.697479
-8.455287 0.000000 0.697479
-6.597021 0.000000 0.697479
-0.263873 0.000000 0.697479
-2.008071 0.000000 0.697479
0.994414 0.000000 0.697479
0.383072 0.000000 0.697479
-1.947025 0.000000 0.697479
4.628168 0.000000 0.697479
7.652888 0.000000 0.697479
-14.387302 0.000000 0.697479
-8.455287 0.000000 0.697479
-6.597021 0.000000 0.697479
-0.263873 0.000000 0.697479
-2.008071 0.000000 0.697479
0.994414 0.000000 0.697479
0.383072 0.000000 0.697479
-1.947025 0.000000 0.697479
4.628168 0.000000 0.697479
7.652888 0.000000 0.697479
