# vtk DataFile Version 4.0
hesp visualization file
ASCII
DATASET UNSTRUCTURED_GRID
POINTS 90 double
1.359078 1.000000 9.009975
2.247987 1.000000 9.009975
3.137871 1.000000 9.009975
4.063652 1.000000 9.009975
4.936322 1.000000 9.009975
5.861851 1.000000 9.009975
6.749467 1.000000 9.009975
7.623962 1.000000 9.009975
8.566032 1.000000 9.009975
9.551821 1.000000 9.009975
1.359078 2.000000 9.009975
2.247987 2.000000 9.009975
3.137871 2.000000 9.009975
4.063652 2.000000 9.009975
4.936322 2.000000 9.009975
5.861851 2.000000 9.009975
6.749467 2.000000 9.009975
7.623962 2.000000 9.009975
8.566032 2.000000 9.009975
9.551821 2.000000 9.009975
1.359078 3.000000 9.009975
2.247987 3.000000 9.009975
3.137871 3.000000 9.009975
4.063652 3.000000 9.009975
4.936322 3.000000 9.009975
5.861851 3.000000 9.009975
6.749467 3.000000 9.009975
7.623962 3.000000 9.009975
8.566032 3.000000 9.009975
9.551821 3.000000 9.009975
1.359078 4.000000 9.009975
2.247987 4.000000 9.009975
3.137871 4.000000 9.009975
4.063652 4.000000 9.009975
4.936322 4.000000 9.009975
5.861851 4.000000 9.009975
6.749467 4.000000 9.009975
7.623962 4.000000 9.009975
8.566032 4.000000 9.009975
9.551821 4.000000 9.009975
1.359078 5.000000 9.009975
2.247987 5.000000 9.009975
3.137871 5.000000 9.009975
4.063652 5.000000 9.009975
4.936322 5.000000 9.009975
5.861851 5.000000 9.009975
6.749467 5.000000 9.009975
7.623962 5.000000 9.009975
8.566032 5.000000 9.009975
9.551821 5.000000 9.009975
1.359078 6.000000 9.009975
2.247987 6.000000 9.009975
3.137871 6.000000 9.009975
4.063652 6.000000 9.009975
4.936322 6.000000 9.009975
5.861851 6.000000 9.009975
6.749467 6.000000 9.009975
7.623962 6.000000 9.009975
8.566032 6.000000 9.009975
9.551821 6.000000 9.009975
1.359078 7.000000 9.009975
2.247987 7.000000 9.009975
3.137871 7.000000 9.009975
4.063652 7.000000 9.009975
4.936322 7.000000 9.009975
5.861851 7.000000 9.009975
6.749467 7.000000 9.009975
7.623962 7.000000 9.009975
8.566032 7.000000 9.009975
9.551821 7.000000 9.009975
1.359078 8.000000 9.009975
2.247987 8.000000 9.009975
3.137871 8.000000 9.009975
4.063652 8.000000 9.009975
4.936322 8.000000 9.009975
5.861851 8.000000 9.009975
6.749467 8.000000 9.009975
7.623962 8.000000 9.009975
8.566032 8.000000 9.009975
9.551821 8.000000 9.009975
1.359078 9.000000 9.009975
2.247987 9.000000 9.009975
3.137871 9.000000 9.009975
4.063652 9.000000 9.009975
4.936322 9.000000 9.009975
5.861851 9.000000 9.009975
6.749467 9.000000 9.009975
7.623962 9.000000 9.009975
8.566032 9.000000 9.009975
9.551821 9.000000 9.009975
CELLS 0 0
CELL_TYPES 0
POINT_DATA 90
SCALARS m double
LOOKUP_TABLE default
1.000000
1.000000
1.000000
1.000000
1.000000
1.000000
1.000000
1.000000
1.000000
1.000000
1.000000
1.000000
1.000000
1.000000
1.000000
1.000000
1.000000
1.000000
1.000000
1.000000
1.000000
1.000000
1.000000
1.000000
1.000000
1.000000
1.000000
1.000000
1.000000
1.000000
1.000000
1.000000
1.000000
1.000000
1.000000
1.000000
1.000000
1.000000
1.000000
1.000000
1.000000
1.000000
1.000000
1.000000
1.000000
1.000000
1.000000
1.000000
1.000000
1.000000
1.000000
1.000000
1.000000
1.000000
1.000000
1.000000
1.000000
1.000000
1.000000
1.000000
1.000000
1.000000
1.000000
1.000000
1.000000
1.000000
1.000000
1.000000
1.000000
1.000000
1.000000
1.000000
1.000000
1.000000
1.000000
1.000000
1.000000
1.000000
1.000000
1.000000
1.000000
1.000000
1.000000
1.000000
1.000000
1.000000
1.000000
1.000000
1.000000
1.000000
VECTORS v double
-2.373310 0.000000 0.442426
-4.124842 0.000000 0.442426
2.126390 0.000000 0.442426
-1.045833 0.000000 0.442426
1.037684 0.000000 0.442426
-2.204276 0.000000 0.442426
3.530885 0.000000 0.442426
-0.691760 0.000000 0.442426
-6.926223 0.000000 0.442426
-9.328749 0.000000 0.442426
-2.373310 0.000000 0.442426
-4.124842 0.000000 0.442426
2.126390 0.000000 0.442426
-1.045833 0.000000 0.442426
1.037684 0.000000 0.442426
-2.204276 0.000000 0.442426
3.530885 0.000000 0.442426
-0.691760 0.000000 0.442426
-6.926223 0.000000 0.442426
-9.328749 0.000000 0.442426
-2.373310 0.000000 0.442426
-4.124842 0.000000 0.442426
2.126390 0.000000 0.442426
-1.045833 0.000000 0.442426
1.037684 0.000000 0.442426
-2.204276 0.000000 0.442426
3.530885 0.000000 0.442426
-0.691760 0.000000 0.442426
-6.926223 0.000000 0.442426
-9.328749 0.000000 0.442426
-2.373310 0.000000 0.442426
-4.124842 0.000000 0.442426
2.126390 0.000000 0.442426
-1.045833 0.000000 0.442426
1.037684 0.000000 0.442426
-2.204276 0.000000 0.442426
3.530885 0.000000 0.442426
-0.691760 0.000000 0.442426
-6.926223 0.000000 0.442426
-9.328749 0.000000 0.442426
-2.373310 0.000000 0.442426
-4.124842 0.000000 0.442426
2.126390 0.000000 0.442426
-1.045833 0.000000 0.442426
1.037684 0.000000 0.442426
-2.204276 0.000000 0.442426
3.530885 0.000000 0.442426
-0.691760 0.000000 0.442426
-6.926223 0.000000 0.442426
-9.328749 0.000000 0.442426
-2.373310 0.000000 0.442426
-4.124842 0.000000 0.442426
2.126390 0.000000 0.442426
-1.045833 0.000000 0.442426
1.037684 0.000000 0.442426
-2.204276 0.000000 0.442426
3.530885 0.000000 0.442426
-0.691760 0.000000 0.442426
-6.926223 0.000000 0.442426
-9.328749 0.000000 0.442426
-2.373310 0.000000 0.442426
-4.124842 0.000000 0.442426
2.126390 0.000000 0.442426
-1.045833 0.000000 0.442426
1.037684 0.000000 0.442426
-2.204276 0.000000 0.442426
3.530885 0.000000 0.442426
-0.691760 0.000000 0.442426
-6.926223 0.000000 0.442426
-9.328749 0.000000 0.442426
-2.373310 0.000000 0.442426
-4.124842 0.000000 0.442426
2.126390 0.000000 0.442426
-1.045833 0.000000 0.442426
1.037684 0.000000 0.442426
-2.204276 0.000000 0.442426
3.530885 0.000000 0.442426
-0.691760 0.000000 0.442426
-6.926223 0.000000 0.442426
-9.328749 0.000000 0.442426
-2.373310 0.000000 0.442426
-4.124842 0.000000 0.442426
2.126390 0.000000 0.442426
-1.045833 0.000000 0.442426
1.037684 0.000000 0.442426
-2.204276 0.000000 0.442426
3.530885 0.000000 0.442426
-0.691760 0.000000 0.442426
-6.926223 0.000000 0.442426
-9.328749 0.000000 0.442426
