# vtk DataFile Version 4.0
hesp visualization file
ASCII
DATASET UNSTRUCTURED_GRID
POINTS 90 double
1.334033 1.000000 9.006042
2.275136 1.000000 9.006042
3.143209 1.000000 9.006042
4.048027 1.000000 9.006042
4.951973 1.000000 9.006042
5.856780 1.000000 9.006042
6.724695 1.000000 9.006042
7.664114 1.000000 9.006042
8.650878 1.000000 9.006042
9.649201 1.000000 9.006042
1.334033 2.000000 9.006042
2.275136 2.000000 9.006042
3.143209 2.000000 9.006042
4.048027 2.000000 9.006042
4.951973 2.000000 9.006042
5.856780 2.000000 9.006042
6.724695 2.000000 9.006042
7.664114 2.000000 9.006042
8.650878 2.000000 9.006042
9.649201 2.000000 9.006042
1.334033 3.000000 9.006042
2.275136 3.000000 9.006042
3.143209 3.000000 9.006042
4.048027 3.000000 9.006042
4.951973 3.000000 9.006042
5.856780 3.000000 9.006042
6.724695 3.000000 9.006042
7.664114 3.000000 9.006042
8.650878 3.000000 9.006042
9.649201 3.000000 9.006042
1.334033 4.000000 9.006042
2.275136 4.000000 9.006042
3.143209 4.000000 9.006042
4.048027 4.000000 9.006042
4.951973 4.000000 9.006042
5.856780 4.000000 9.006042
6.724695 4.000000 9.006042
7.664114 4.000000 9.006042
8.650878 4.000000 9.006042
9.649201 4.000000 9.006042
1.334033 5.000000 9.006042
2.275136 5.000000 9.006042
3.143209 5.000000 9.006042
4.048027 5.000000 9.006042
4.951973 5.000000 9.006042
5.856780 5.000000 9.006042
6.724695 5.000000 9.006042
7.664114 5.000000 9.006042
8.650878 5.000000 9.006042
9.649201 5.000000 9.006042
1.334033 6.000000 9.006042
2.275136 6.000000 9.006042
3.143209 6.000000 9.006042
4.048027 6.000000 9.006042
4.951973 6.000000 9.006042
5.856780 6.000000 9.006042
6.724695 6.000000 9.006042
7.664114 6.000000 9.006042
8.650878 6.000000 9.006042
9.649201 6.000000 9.006042
1.334033 7.000000 9.006042
2.275136 7.000000 9.006042
3.143209 7.000000 9.006042
4.048027 7.000000 9.006042
4.951973 7.000000 9.006042
5.856780 7.000000 9.006042
6.724695 7.000000 9.006042
7.664114 7.000000 9.006042
8.650878 7.000000 9.006042
9.649201 7.000000 9.006042
1.334033 8.000000 9.006042
2.275136 8.000000 9.006042
3.143209 8.000000 9.006042
4.048027 8.000000 9.006042
4.951973 8.000000 9.006042
5.856780 8.000000 9.006042
6.724695 8.000000 9.006042
7.664114 8.000000 9.006042
8.650878 8.000000 9.006042
9.649201 8.000000 9.006042
1.334033 9.000000 9.006042
2.275136 9.000000 9.006042
3.143209 9.000000 9.006042
4.048027 9.000000 9.006042
4.951973 9.000000 9.006042
5.856780 9.000000 9.006042
6.724695 9.000000 9.006042
7.664114 9.000000 9.006042
8.650878 9.000000 9.006042
9.649201 9.000000 9.006042
CELLS 0 0
CELL_TYPES 0
POINT_DATA 90
SCALARS m double
LOOKUP_TABLE default
1.000000
1.000000
1.000000
1.000000
1.000000
1.000000
1.000000
1.000000
1.000000
1.000000
1.000000
1.000000
1.000000
1.000000
1.000000
1.000000
1.000000
1.000000
1.000000
1.000000
1.000000
1.000000
1.000000
1.000000
1.000000
1.000000
1.000000
1.000000
1.000000
1.000000
1.000000
1.000000
1.000000
1.000000
1.000000
1.000000
1.000000
1.000000
1.000000
1.000000
1.000000
1.000000
1.000000
1.000000
1.000000
1.000000
1.000000
1.000000
1.000000
1.000000
1.000000
1.000000
1.000000
1.000000
1.000000
1.000000
1.000000
1.000000
1.000000
1.000000
1.000000
1.000000
1.000000
1.000000
1.000000
1.000000
1.000000
1.000000
1.000000
1.000000
1.000000
1.000000
1.000000
1.000000
1.000000
1.000000
1.000000
1.000000
1.000000
1.000000
1.000000
1.000000
1.000000
1.000000
1.000000
1.000000
1.000000
1.000000
1.000000
1.000000
VECTORS v double
6.467019 0.000000 0.344329
-0.021296 0.000000 0.344329
-3.179614 0.000000 0.344329
3.219004 0.000000 0.344329
-3.219436 0.000000 0.344329
3.175866 0.000000 0.344329
-0.030702 0.000000 0.344329
-6.961901 0.000000 0.344329
-9.501048 0.000000 0.344329
-9.947929 0.000000 0.344329
6.467019 0.000000 0.344329
-0.021296 0.000000 0.344329
-3.179614 0.000000 0.344329
3.219004 0.000000 0.344329
-3.219436 0.000000 0.344329
3.175866 0.000000 0.344329
-0.030702 0.000000 0.344329
-6.961901 0.000000 0.344329
-9.501048 0.000000 0.344329
-9.947929 0.000000 0.344329
6.467019 0.000000 0.344329
-0.021296 0.000000 0.344329
-3.179614 0.000000 0.344329
3.219004 0.000000 0.344329
-3.219436 0.000000 0.344329
3.175866 0.000000 0.344329
-0.030702 0.000000 0.344329
-6.961901 0.000000 0.344329
-9.501048 0.000000 0.344329
-9.947929 0.000000 0.344329
6.467019 0.000000 0.344329
-0.021296 0.000000 0.344329
-3.179614 0.000000 0.344329
3.219004 0.000000 0.344329
-3.219436 0.000000 0.344329
3.175866 0.000000 0.344329
-0.030702 0.000000 0.344329
-6.961901 0.000000 0.344329
-9.501048 0.000000 0.344329
-9.947929 0.000000 0.344329
6.467019 0.000000 0.344329
-0.021296 0.000000 0.344329
-3.179614 0.000000 0.344329
3.219004 0.000000 0.344329
-3.219436 0.000000 0.344329
3.175866 0.000000 0.344329
-0.030702 0.000000 0.344329
-6.961901 0.000000 0.344329
-9.501048 0.000000 0.344329
-9.947929 0.000000 0.344329
6.467019 0.000000 0.344329
-0.021296 0.000000 0.344329
-3.179614 0.000000 0.344329
3.219004 0.000000 0.344329
-3.219436 0.000000 0.344329
3.175866 0.000000 0.344329
-0.030702 0.000000 0.344329
-6.961901 0.000000 0.344329
-9.501048 0.000000 0.344329
-9.947929 0.000000 0.344329
6.467019 0.000000 0.344329
-0.021296 0.000000 0.344329
-3.179614 0.000000 0.344329
3.219004 0.000000 0.344329
-3.219436 0.000000 0.344329
3.175866 0.000000 0.344329
-0.030702 0.000000 0.344329
-6.961901 0.000000 0.344329
-9.501048 0.000000 0.344329
-9.947929 0.000000 0.344329
6.467019 0.000000 0.344329
-0.021296 0.000000 0.344329
-3.179614 0.000000 0.344329
3.219004 0.000000 0.344329
-3.219436 0.000000 0.344329
3.175866 0.000000 0.344329
-0.030702 0.000000 0.344329
-6.961901 0.000000 0.344329
-9.501048 0.000000 0.344329
-9.947929 0.000000 0.344329
6.467019 0.000000 0.344329
-0.021296 0.000000 0.344329
-3.179614 0.000000 0.344329
3.219004 0.000000 0.344329
-3.219436 0.000000 0.344329
3.175866 0.000000 0.344329
-0.030702 0.000000 0.344329
-6.961901 0.000000 0.344329
-9.501048 0.000000 0.344329
-9.947929 0.000000 0.344329
