# vtk DataFile Version 4.0
hesp visualization file
ASCII
DATASET UNSTRUCTURED_GRID
POINTS 90 double
1.113364 1.000000 9.022084
2.172182 1.000000 9.022084
3.119091 1.000000 9.022084
4.044755 1.000000 9.022084
4.948744 1.000000 9.022084
5.853975 1.000000 9.022084
6.738975 1.000000 9.022084
7.667371 1.000000 9.022084
8.551112 1.000000 9.022084
9.448472 1.000000 9.022084
1.113364 2.000000 9.022084
2.172182 2.000000 9.022084
3.119091 2.000000 9.022084
4.044755 2.000000 9.022084
4.948744 2.000000 9.022084
5.853975 2.000000 9.022084
6.738975 2.000000 9.022084
7.667371 2.000000 9.022084
8.551112 2.000000 9.022084
9.448472 2.000000 9.022084
1.113364 3.000000 9.022084
2.172182 3.000000 9.022084
3.119091 3.000000 9.022084
4.044755 3.000000 9.022084
4.948744 3.000000 9.022084
5.853975 3.000000 9.022084
6.738975 3.000000 9.022084
7.667371 3.000000 9.022084
8.551112 3.000000 9.022084
9.448472 3.000000 9.022084
1.113364 4.000000 9.022084
2.172182 4.000000 9.022084
3.119091 4.000000 9.022084
4.044755 4.000000 9.022084
4.948744 4.000000 9.022084
5.853975 4.000000 9.022084
6.738975 4.000000 9.022084
7.667371 4.000000 9.022084
8.551112 4.000000 9.022084
9.448472 4.000000 9.022084
1.113364 5.000000 9.022084
2.172182 5.000000 9.022084
3.119091 5.000000 9.022084
4.044755 5.000000 9.022084
4.948744 5.000000 9.022084
5.853975 5.000000 9.022084
6.738975 5.000000 9.022084
7.667371 5.000000 9.022084
8.551112 5.000000 9.022084
9.448472 5.000000 9.022084
1.113364 6.000000 9.022084
2.172182 6.000000 9.022084
3.119091 6.000000 9.022084
4.044755 6.000000 9.022084
4.948744 6.000000 9.022084
5.853975 6.000000 9.022084
6.738975 6.000000 9.022084
7.667371 6.000000 9.022084
8.551112 6.000000 9.022084
9.448472 6.000000 9.022084
1.113364 7.000000 9.022084
2.172182 7.000000 9.022084
3.119091 7.000000 9.022084
4.044755 7.000000 9.022084
4.948744 7.000000 9.022084
5.853975 7.000000 9.022084
6.738975 7.000000 9.022084
7.667371 7.000000 9.022084
8.551112 7.000000 9.022084
9.448472 7.000000 9.022084
1.113364 8.000000 9.022084
2.172182 8.000000 9.022084
3.119091 8.000000 9.022084
4.044755 8.000000 9.022084
4.948744 8.000000 9.022084
5.853975 8.000000 9.022084
6.738975 8.000000 9.022084
7.667371 8.000000 9.022084
8.551112 8.000000 9.022084
9.448472 8.000000 9.022084
1.113364 9.000000 9.022084
2.172182 9.000000 9.022084
3.119091 9.000000 9.022084
4.044755 9.000000 9.022084
4.948744 9.000000 9.022084
5.853975 9.000000 9.022084
6.738975 9.000000 9.022084
7.667371 9.000000 9.022084
8.551112 9.000000 9.022084
9.448472 9.000000 9.022084
CELLS 0 0
CELL_TYPES 0
POINT_DATA 90
SCALARS m double
LOOKUP_TABLE default
1.000000
1.000000
1.000000
1.000000
1.000000
1.000000
1.000000
1.000000
1.000000
1.000000
1.000000
1.000000
1.000000
1.000000
1.000000
1.000000
1.000000
1.000000
1.000000
1.000000
1.000000
1.000000
1.000000
1.000000
1.000000
1.000000
1.000000
1.000000
1.000000
1.000000
1.000000
1.000000
1.000000
1.000000
1.000000
1.000000
1.000000
1.000000
1.000000
1.000000
1.000000
1.000000
1.000000
1.000000
1.000000
1.000000
1.000000
1.000000
1.000000
1.000000
1.000000
1.000000
1.000000
1.000000
1.000000
1.000000
1.000000
1.000000
1.000000
1.000000
1.000000
1.000000
1.000000
1.000000
1.000000
1.000000
1.000000
1.000000
1.000000
1.000000
1.000000
1.000000
1.000000
1.000000
1.000000
1.000000
1.000000
1.000000
1.000000
1.000000
1.000000
1.000000
1.000000
1.000000
1.000000
1.000000
1.000000
1.000000
1.000000
1.000000
VECTORS v double
-14.387302 0.000000 0.658241
-6.377066 0.000000 0.658241
-6.271776 0.000000 0.658241
1.446633 0.000000 0.658241
-2.679922 0.000000 0.658241
2.378898 0.000000 0.658241
-1.566189 0.000000 0.658241
-0.610421 0.000000 0.658241
4.497169 0.000000 0.658241
3.569945 0.000000 0.658241
-14.387302 0.000000 0.658241
-6.377066 0.000000 0.658241
-6.271776 0.000000 0.658241
1.446633 0.000000 0.658241
-2.679922 0.000000 0.658241
2.378898 0.000000 0.658241
-1.566189 0.000000 0.658241
-0.610421 0.000000 0.658241
4.497169 0.000000 0.658241
3.569945 0.000000 0.658241
-14.387302 0.000000 0.658241
-6.377066 0.000000 0.658241
-6.271776 0.000000 0.658241
1.446633 0.000000 0.658241
-2.679922 0.000000 0.658241
2.378898 0.000000 0.658241
-1.566189 0.000000 0.658241
-0.610421 0.000000 0.658241
4.497169 0.000000 0.658241
3.569945 0.000000 0.658241
-14.387302 0.000000 0.658241
-6.377066 0.000000 0.658241
-6.271776 0.000000 0.658241
1.446633 0.000000 0.658241
-2.679922 0.000000 0.658241
2.378898 0.000000 0.658241
-1.566189 0.000000 0.658241
-0.610421 0.000000 0.658241
4.497169 0.000000 0.658241
3.569945 0.000000 0.658241
-14.387302 0.000000 0.658241
-6.377066 0.000000 0.658241
-6.271776 0.000000 0.658241
1.446633 0.000000 0.658241
-2.679922 0.000000 0.658241
2.378898 0.000000 0.658241
-1.566189 0.000000 0.658241
-0.610421 0.000000 0.658241
4.497169 0.000000 0.658241
3.569945 0.000000 0.658241
-14.387302 0.000000 0.658241
-6.377066 0.000000 0.658241
-6.271776 0.000000 0.658241
1.446633 0.000000 0.658241
-2.679922 0.000000 0.658241
2.378898 0.000000 0.658241
-1.566189 0.000000 0.658241
-0.610421 0.000000 0.658241
4.497169 0.000000 0.658241
3.569945 0.000000 0.658241
-14.387302 0.000000 0.658241
-6.377066 0.000000 0.658241
-6.271776 0.000000 0.658241
1.446633 0.000000 0.658241
-2.679922 0.000000 0.658241
2.378898 0.000000 0.658241
-1.566189 0.000000 0.658241
-0.610421 0.000000 0.658241
4.497169 0.000000 0.658241
3.569945 0.000000 0.658241
-14.387302 0.000000 0.658241
-6.377066 0.000000 0.658241
-6.271776 0.000000 0.658241
1.446633 0.000000 0.658241
-2.679922 0.000000 0.658241
2.378898 0.000000 0.658241
-1.566189 0.000000 0.658241
-0.610421 0.000000 0.658241
4.497169 0.000000 0.658241
3.569945 0.000000 0.658241
-14.387302 0.000000 0.658241
-6.377066 0.000000 0.658241
-6.271776 0.000000 0.658241
1.446633 0.000000 0.658241
-2.679922 0.000000 0.658241
2.378898 0.000000 0.658241
-1.566189 0.000000 0.658241
-0.610421 0.000000 0.658241
4.497169 0.000000 0.658241
3.569945 0.000000 0.658241
