# vtk DataFile Version 4.0
hesp visualization file
ASCII
DATASET UNSTRUCTURED_GRID
POINTS 90 double
1.156526 1.000000 9.020153
2.188929 1.000000 9.020153
3.136568 1.000000 9.020153
4.040023 1.000000 9.020153
4.956379 1.000000 9.020153
5.846396 1.000000 9.020153
6.745331 1.000000 9.020153
7.667046 1.000000 9.020153
8.538538 1.000000 9.020153
9.442303 1.000000 9.020153
1.156526 2.000000 9.020153
2.188929 2.000000 9.020153
3.136568 2.000000 9.020153
4.040023 2.000000 9.020153
4.956379 2.000000 9.020153
5.846396 2.000000 9.020153
6.745331 2.000000 9.020153
7.667046 2.000000 9.020153
8.538538 2.000000 9.020153
9.442303 2.000000 9.020153
1.156526 3.000000 9.020153
2.188929 3.000000 9.020153
3.136568 3.000000 9.020153
4.040023 3.000000 9.020153
4.956379 3.000000 9.020153
5.846396 3.000000 9.020153
6.745331 3.000000 9.020153
7.667046 3.000000 9.020153
8.538538 3.000000 9.020153
9.442303 3.000000 9.020153
1.156526 4.000000 9.020153
2.188929 4.000000 9.020153
3.136568 4.000000 9.020153
4.040023 4.000000 9.020153
4.956379 4.000000 9.020153
5.846396 4.000000 9.020153
6.745331 4.000000 9.020153
7.667046 4.000000 9.020153
8.538538 4.000000 9.020153
9.442303 4.000000 9.020153
1.156526 5.000000 9.020153
2.188929 5.000000 9.020153
3.136568 5.000000 9.020153
4.040023 5.000000 9.020153
4.956379 5.000000 9.020153
5.846396 5.000000 9.020153
6.745331 5.000000 9.020153
7.667046 5.000000 9.020153
8.538538 5.000000 9.020153
9.442303 5.000000 9.020153
1.156526 6.000000 9.020153
2.188929 6.000000 9.020153
3.136568 6.000000 9.020153
4.040023 6.000000 9.020153
4.956379 6.000000 9.020153
5.846396 6.000000 9.020153
6.745331 6.000000 9.020153
7.667046 6.000000 9.020153
8.538538 6.000000 9.020153
9.442303 6.000000 9.020153
1.156526 7.000000 9.020153
2.188929 7.000000 9.020153
3.136568 7.000000 9.020153
4.040023 7.000000 9.020153
4.956379 7.000000 9.020153
5.846396 7.000000 9.020153
6.745331 7.000000 9.020153
7.667046 7.000000 9.020153
8.538538 7.000000 9.020153
9.442303 7.000000 9.020153
1.156526 8.000000 9.020153
2.188929 8.000000 9.020153
3.136568 8.000000 9.020153
4.040023 8.000000 9.020153
4.956379 8.000000 9.020153
5.846396 8.000000 9.020153
6.745331 8.000000 9.020153
7.667046 8.000000 9.020153
8.538538 8.000000 9.020153
9.442303 8.000000 9.020153
1.156526 9.000000 9.020153
2.188929 9.000000 9.020153
3.136568 9.000000 9.020153
4.040023 9.000000 9.020153
4.956379 9.000000 9.020153
5.846396 9.000000 9.020153
6.745331 9.000000 9.020153
7.667046 9.000000 9.020153
8.538538 9.000000 9.020153
9.442303 9.000000 9.020153
CELLS 0 0
CELL_TYPES 0
POINT_DATA 90
SCALARS m double
LOOKUP_TABLE default
1.000000
1.000000
1.000000
1.000000
1.000000
1.000000
1.000000
1.000000
1.000000
1.000000
1.000000
1.000000
1.000000
1.000000
1.000000
1.000000
1.000000
1.000000
1.000000
1.000000
1.000000
1.000000
1.000000
1.000000
1.000000
1.000000
1.000000
1.000000
1.000000
1.000000
1.000000
1.000000
1.000000
1.000000
1.000000
1.000000
1.000000
1.000000
1.000000
1.000000
1.000000
1.000000
1.000000
1.000000
1.000000
1.000000
1.000000
1.000000
1.000000
1.000000
1.000000
1.000000
1.000000
1.000000
1.000000
1.000000
1.000000
1.000000
1.000000
1.000000
1.000000
1.000000
1.000000
1.000000
1.000000
1.000000
1.000000
1.000000
1.000000
1.000000
1.000000
1.000000
1.000000
1.000000
1.000000
1.000000
1.000000
1.000000
1.000000
1.000000
1.000000
1.000000
1.000000
1.000000
1.000000
1.000000
1.000000
1.000000
1.000000
1.000000
VECTORS v double
-14.387302 0.000000 0.628811
-4.791707 0.000000 0.628811
-5.264871 0.000000 0.628811
1.534423 0.000000 0.628811
-2.271551 0.000000 0.628811
2.526080 0.000000 0.628811
-2.565187 0.000000 0.628811
0.852903 0.000000 0.628811
3.790999 0.000000 0.628811
0.576175 0.000000 0.628811
-14.387302 0.000000 0.628811
-4.791707 0.000000 0.628811
-5.264871 0.000000 0.628811
1.534423 0.000000 0.628811
-2.271551 0.000000 0.628811
2.526080 0.000000 0.628811
-2.565187 0.000000 0.628811
0.852903 0.000000 0.628811
3.790999 0.000000 0.628811
0.576175 0.000000 0.628811
-14.387302 0.000000 0.628811
-4.791707 0.000000 0.628811
-5.264871 0.000000 0.628811
1.534423 0.000000 0.628811
-2.271551 0.000000 0.628811
2.526080 0.000000 0.628811
-2.565187 0.000000 0.628811
0.852903 0.000000 0.628811
3.790999 0.000000 0.628811
0.576175 0.000000 0.628811
-14.387302 0.000000 0.628811
-4.791707 0.000000 0.628811
-5.264871 0.000000 0.628811
1.534423 0.000000 0.628811
-2.271551 0.000000 0.628811
2.526080 0.000000 0.628811
-2.565187 0.000000 0.628811
0.852903 0.000000 0.628811
3.790999 0.000000 0.628811
0.576175 0.000000 0.628811
-14.387302 0.000000 0.628811
-4.791707 0.000000 0.628811
-5.264871 0.000000 0.628811
1.534423 0.000000 0.628811
-2.271551 0.000000 0.628811
2.526080 0.000000 0.628811
-2.565187 0.000000 0.628811
0.852903 0.000000 0.628811
3.790999 0.000000 0.628811
0.576175 0.000000 0.628811
-14.387302 0.000000 0.628811
-4.791707 0.000000 0.628811
-5.264871 0.000000 0.628811
1.534423 0.000000 0.628811
-2.271551 0.000000 0.628811
2.526080 0.000000 0.628811
-2.565187 0.000000 0.628811
0.852903 0.000000 0.628811
3.790999 0.000000 0.628811
0.576175 0.000000 0.628811
-14.387302 0.000000 0.628811
-4.791707 0.000000 0.628811
-5.264871 0.000000 0.628811
1.534423 0.000000 0.628811
-2.271551 0.000000 0.628811
2.526080 0.000000 0.628811
-2.565187 0.000000 0.628811
0.852903 0.000000 0.628811
3.790999 0.000000 0.628811
0.576175 0.000000 0.628811
-14.387302 0.000000 0.628811
-4.791707 0.000000 0.628811
-5.264871 0.000000 0.628811
1.534423 0.000000 0.628811
-2.271551 0.000000 0.628811
2.526080 0.000000 0.628811
-2.565187 0.000000 0.628811
0.852903 0.000000 0.628811
3.790999 0.000000 0.628811
0.576175 0.000000 0.628811
-14.387302 0.000000 0.628811
-4.791707 0.000000 0.628811
-5.264871 0.000000 0.628811
1.534423 0.000000 0.628811
-2.271551 0.000000 0.628811
2.526080 0.000000 0.628811
-2.565187 0.000000 0.628811
0.852903 0.000000 0.628811
3.790999 0.000000 0.628811
0.576175 0.000000 0.628811
