# vtk DataFile Version 4.0
hesp visualization file
ASCII
DATASET UNSTRUCTURED_GRID
POINTS 90 double
1.012652 1.000000 9.026932
2.114972 1.000000 9.026932
3.073546 1.000000 9.026932
4.043766 1.000000 9.026932
4.934464 1.000000 9.026932
5.861874 1.000000 9.026932
6.739794 1.000000 9.026932
7.655643 1.000000 9.026932
8.583120 1.000000 9.026932
9.498209 1.000000 9.026932
1.012652 2.000000 9.026932
2.114972 2.000000 9.026932
3.073546 2.000000 9.026932
4.043766 2.000000 9.026932
4.934464 2.000000 9.026932
5.861874 2.000000 9.026932
6.739794 2.000000 9.026932
7.655643 2.000000 9.026932
8.583120 2.000000 9.026932
9.498209 2.000000 9.026932
1.012652 3.000000 9.026932
2.114972 3.000000 9.026932
3.073546 3.000000 9.026932
4.043766 3.000000 9.026932
4.934464 3.000000 9.026932
5.861874 3.000000 9.026932
6.739794 3.000000 9.026932
7.655643 3.000000 9.026932
8.583120 3.000000 9.026932
9.498209 3.000000 9.026932
1.012652 4.000000 9.026932
2.114972 4.000000 9.026932
3.073546 4.000000 9.026932
4.043766 4.000000 9.026932
4.934464 4.000000 9.026932
5.861874 4.000000 9.026932
6.739794 4.000000 9.026932
7.655643 4.000000 9.026932
8.583120 4.000000 9.026932
9.498209 4.000000 9.026932
1.012652 5.000000 9.026932
2.114972 5.000000 9.026932
3.073546 5.000000 9.026932
4.043766 5.000000 9.026932
4.934464 5.000000 9.026932
5.861874 5.000000 9.026932
6.739794 5.000000 9.026932
7.655643 5.000000 9.026932
8.583120 5.000000 9.026932
9.498209 5.000000 9.026932
1.012652 6.000000 9.026932
2.114972 6.000000 9.026932
3.073546 6.000000 9.026932
4.043766 6.000000 9.026932
4.934464 6.000000 9.026932
5.861874 6.000000 9.026932
6.739794 6.000000 9.026932
7.655643 6.000000 9.026932
8.583120 6.000000 9.026932
9.498209 6.000000 9.026932
1.012652 7.000000 9.026932
2.114972 7.000000 9.026932
3.073546 7.000000 9.026932
4.043766 7.000000 9.026932
4.934464 7.000000 9.026932
5.861874 7.000000 9.026932
6.739794 7.000000 9.026932
7.655643 7.000000 9.026932
8.583120 7.000000 9.026932
9.498209 7.000000 9.026932
1.012652 8.000000 9.026932
2.114972 8.000000 9.026932
3.073546 8.000000 9.026932
4.043766 8.000000 9.026932
4.934464 8.000000 9.026932
5.861874 8.000000 9.026932
6.739794 8.000000 9.026932
7.655643 8.000000 9.026932
8.583120 8.000000 9.026932
9.498209 8.000000 9.026932
1.012652 9.000000 9.026932
2.114972 9.000000 9.026932
3.073546 9.000000 9.026932
4.043766 9.000000 9.026932
4.934464 9.000000 9.026932
5.861874 9.000000 9.026932
6.739794 9.000000 9.026932
7.655643 9.000000 9.026932
8.583120 9.000000 9.026932
9.498209 9.000000 9.026932
CELLS 0 0
CELL_TYPES 0
POINT_DATA 90
SCALARS m double
LOOKUP_TABLE default
1.000000
1.000000
1.000000
1.000000
1.000000
1.000000
1.000000
1.000000
1.000000
1.000000
1.000000
1.000000
1.000000
1.000000
1.000000
1.000000
1.000000
1.000000
1.000000
1.000000
1.000000
1.000000
1.000000
1.000000
1.000000
1.000000
1.000000
1.000000
1.000000
1.000000
1.000000
1.000000
1.000000
1.000000
1.000000
1.000000
1.000000
1.000000
1.000000
1.000000
1.000000
1.000000
1.000000
1.000000
1.000000
1.000000
1.000000
1.000000
1.000000
1.000000
1.000000
1.000000
1.000000
1.000000
1.000000
1.000000
1.000000
1.000000
1.000000
1.000000
1.000000
1.000000
1.000000
1.000000
1.000000
1.000000
1.000000
1.000000
1.000000
1.000000
1.000000
1.000000
1.000000
1.000000
1.000000
1.000000
1.000000
1.000000
1.000000
1.000000
1.000000
1.000000
1.000000
1.000000
1.000000
1.000000
1.000000
1.000000
1.000000
1.000000
VECTORS v double
-14.387302 0.000000 0.726909
-9.838993 0.000000 0.726909
-6.337150 0.000000 0.726909
-2.433994 0.000000 0.726909
-0.957408 0.000000 0.726909
-0.485859 0.000000 0.726909
1.745874 0.000000 0.726909
-2.076453 0.000000 0.726909
4.327723 0.000000 0.726909
10.443531 0.000000 0.726909
-14.387302 0.000000 0.726909
-9.838993 0.000000 0.726909
-6.337150 0.000000 0.726909
-2.433994 0.000000 0.726909
-0.957408 0.000000 0.726909
-0.485859 0.000000 0.726909
1.745874 0.000000 0.726909
-2.076453 0.000000 0.726909
4.327723 0.000000 0.726909
10.443531 0.000000 0.726909
-14.387302 0.000000 0.726909
-9.838993 0.000000 0.726909
-6.337150 0.000000 0.726909
-2.433994 0.000000 0.726909
-0.957408 0.000000 0.726909
-0.485859 0.000000 0.726909
1.745874 0.000000 0.726909
-2.076453 0.000000 0.726909
4.327723 0.000000 0.726909
10.443531 0.000000 0.726909
-14.387302 0.000000 0.726909
-9.838993 0.000000 0.726909
-6.337150 0.000000 0.726909
-2.433994 0.000000 0.726909
-0.957408 0.000000 0.726909
-0.485859 0.000000 0.726909
1.745874 0.000000 0.726909
-2.076453 0.000000 0.726909
4.327723 0.000000 0.726909
10.443531 0.000000 0.726909
-14.387302 0.000000 0.726909
-9.838993 0.000000 0.726909
-6.337150 0.000000 0.726909
-2.433994 0.000000 0.726909
-0.957408 0.000000 0.726909
-0.485859 0.000000 0.726909
1.745874 0.000000 0.726909
-2.076453 0.000000 0.726909
4.327723 0.000000 0.726909
10.443531 0.000000 0.726909
-14.387302 0.000000 0.726909
-9.838993 0.000000 0.726909
-6.337150 0.000000 0.726909
-2.433994 0.000000 0.726909
-0.957408 0.000000 0.726909
-0.485859 0.000000 0.726909
1.745874 0.000000 0.726909
-2.076453 0.000000 0.726909
4.327723 0.000000 0.726909
10.443531 0.000000 0.726909
-14.387302 0.000000 0.726909
-9.838993 0.000000 0.726909
-6.337150 0.000000 0.726909
-2.433994 0.000000 0.726909
-0.957408 0.000000 0.726909
-0.485859 0.000000 0.726909
1.745874 0.000000 0.726909
-2.076453 0.000000 0.726909
4.327723 0.000000 0.726909
10.443531 0.000000 0.726909
-14.387302 0.000000 0.726909
-9.838993 0.000000 0.726909
-6.337150 0.000000 0.726909
-2.433994 0.000000 0.726909
-0.957408 0.000000 0.726909
-0.485859 0.000000 0.726909
1.745874 0.000000 0.726909
-2.076453 0.000000 0.726909
4.327723 0.000000 0.726909
10.443531 0.000000 0.726909
-14.387302 0.000000 0.726909
-9.838993 0.000000 0.726909
-6.337150 0.000000 0.726909
-2.433994 0.000000 0.726909
-0.957408 0.000000 0.726909
-0.485859 0.000000 0.726909
1.745874 0.000000 0.726909
-2.076453 0.000000 0.726909
4.327723 0.000000 0.726909
10.443531 0.000000 0.726909
