# vtk DataFile Version 4.0
hesp visualization file
ASCII
DATASET UNSTRUCTURED_GRID
POINTS 90 double
1.150982 1.000000 9.001117
2.150496 1.000000 9.001117
3.141501 1.000000 9.001117
4.069627 1.000000 9.001117
4.930374 1.000000 9.001117
5.858500 1.000000 9.001117
6.849509 1.000000 9.001117
7.849015 1.000000 9.001117
8.848991 1.000000 9.001117
9.848992 1.000000 9.001117
1.150982 2.000000 9.001117
2.150496 2.000000 9.001117
3.141501 2.000000 9.001117
4.069627 2.000000 9.001117
4.930374 2.000000 9.001117
5.858500 2.000000 9.001117
6.849509 2.000000 9.001117
7.849015 2.000000 9.001117
8.848991 2.000000 9.001117
9.848992 2.000000 9.001117
1.150982 3.000000 9.001117
2.150496 3.000000 9.001117
3.141501 3.000000 9.001117
4.069627 3.000000 9.001117
4.930374 3.000000 9.001117
5.858500 3.000000 9.001117
6.849509 3.000000 9.001117
7.849015 3.000000 9.001117
8.848991 3.000000 9.001117
9.848992 3.000000 9.001117
1.150982 4.000000 9.001117
2.150496 4.000000 9.001117
3.141501 4.000000 9.001117
4.069627 4.000000 9.001117
4.930374 4.000000 9.001117
5.858500 4.000000 9.001117
6.849509 4.000000 9.001117
7.849015 4.000000 9.001117
8.848991 4.000000 9.001117
9.848992 4.000000 9.001117
1.150982 5.000000 9.001117
2.150496 5.000000 9.001117
3.141501 5.000000 9.001117
4.069627 5.000000 9.001117
4.930374 5.000000 9.001117
5.858500 5.000000 9.001117
6.849509 5.000000 9.001117
7.849015 5.000000 9.001117
8.848991 5.000000 9.001117
9.848992 5.000000 9.001117
1.150982 6.000000 9.001117
2.150496 6.000000 9.001117
3.141501 6.000000 9.001117
4.069627 6.000000 9.001117
4.930374 6.000000 9.001117
5.858500 6.000000 9.001117
6.849509 6.000000 9.001117
7.849015 6.000000 9.001117
8.848991 6.000000 9.001117
9.848992 6.000000 9.001117
1.150982 7.000000 9.001117
2.150496 7.000000 9.001117
3.141501 7.000000 9.001117
4.069627 7.000000 9.001117
4.930374 7.000000 9.001117
5.858500 7.000000 9.001117
6.849509 7.000000 9.001117
7.849015 7.000000 9.001117
8.848991 7.000000 9.001117
9.848992 7.000000 9.001117
1.150982 8.000000 9.001117
2.150496 8.000000 9.001117
3.141501 8.000000 9.001117
4.069627 8.000000 9.001117
4.930374 8.000000 9.001117
5.858500 8.000000 9.001117
6.849509 8.000000 9.001117
7.849015 8.000000 9.001117
8.848991 8.000000 9.001117
9.848992 8.000000 9.001117
1.150982 9.000000 9.001117
2.150496 9.000000 9.001117
3.141501 9.000000 9.001117
4.069627 9.000000 9.001117
4.930374 9.000000 9.001117
5.858500 9.000000 9.001117
6.849509 9.000000 9.001117
7.849015 9.000000 9.001117
8.848991 9.000000 9.001117
9.848992 9.000000 9.001117
CELLS 0 0
CELL_TYPES 0
POINT_DATA 90
SCALARS m double
LOOKUP_TABLE default
1.000000
1.000000
1.000000
1.000000
1.000000
1.000000
1.000000
1.000000
1.000000
1.000000
1.000000
1.000000
1.000000
1.000000
1.000000
1.000000
1.000000
1.000000
1.000000
1.000000
1.000000
1.000000
1.000000
1.000000
1.000000
1.000000
1.000000
1.000000
1.000000
1.000000
1.000000
1.000000
1.000000
1.000000
1.000000
1.000000
1.000000
1.000000
1.000000
1.000000
1.000000
1.000000
1.000000
1.000000
1.000000
1.000000
1.000000
1.000000
1.000000
1.000000
1.000000
1.000000
1.000000
1.000000
1.000000
1.000000
1.000000
1.000000
1.000000
1.000000
1.000000
1.000000
1.000000
1.000000
1.000000
1.000000
1.000000
1.000000
1.000000
1.000000
1.000000
1.000000
1.000000
1.000000
1.000000
1.000000
1.000000
1.000000
1.000000
1.000000
1.000000
1.000000
1.000000
1.000000
1.000000
1.000000
1.000000
1.000000
1.000000
1.000000
VECTORS v double
9.990728 0.000000 0.148131
9.776036 0.000000 0.148131
7.144298 0.000000 0.148131
-2.747727 0.000000 0.148131
2.747865 0.000000 0.148131
-7.144437 0.000000 0.148131
-9.775646 0.000000 0.148131
-9.993751 0.000000 0.148131
-9.998831 0.000000 0.148131
-9.998590 0.000000 0.148131
9.990728 0.000000 0.148131
9.776036 0.000000 0.148131
7.144298 0.000000 0.148131
-2.747727 0.000000 0.148131
2.747865 0.000000 0.148131
-7.144437 0.000000 0.148131
-9.775646 0.000000 0.148131
-9.993751 0.000000 0.148131
-9.998831 0.000000 0.148131
-9.998590 0.000000 0.148131
9.990728 0.000000 0.148131
9.776036 0.000000 0.148131
7.144298 0.000000 0.148131
-2.747727 0.000000 0.148131
2.747865 0.000000 0.148131
-7.144437 0.000000 0.148131
-9.775646 0.000000 0.148131
-9.993751 0.000000 0.148131
-9.998831 0.000000 0.148131
-9.998590 0.000000 0.148131
9.990728 0.000000 0.148131
9.776036 0.000000 0.148131
7.144298 0.000000 0.148131
-2.747727 0.000000 0.148131
2.747865 0.000000 0.148131
-7.144437 0.000000 0.148131
-9.775646 0.000000 0.148131
-9.993751 0.000000 0.148131
-9.998831 0.000000 0.148131
-9.998590 0.000000 0.148131
9.990728 0.000000 0.148131
9.776036 0.000000 0.148131
7.144298 0.000000 0.148131
-2.747727 0.000000 0.148131
2.747865 0.000000 0.148131
-7.144437 0.000000 0.148131
-9.775646 0.000000 0.148131
-9.993751 0.000000 0.148131
-9.998831 0.000000 0.148131
-9.998590 0.000000 0.148131
9.990728 0.000000 0.148131
9.776036 0.000000 0.148131
7.144298 0.000000 0.148131
-2.747727 0.000000 0.148131
2.747865 0.000000 0.148131
-7.144437 0.000000 0.148131
-9.775646 0.000000 0.148131
-9.993751 0.000000 0.148131
-9.998831 0.000000 0.148131
-9.998590 0.000000 0.148131
9.990728 0.000000 0.148131
9.776036 0.000000 0.148131
7.144298 0.000000 0.148131
-2.747727 0.000000 0.148131
2.747865 0.000000 0.148131
-7.144437 0.000000 0.148131
-9.775646 0.000000 0.148131
-9.993751 0.000000 0.148131
-9.998831 0.000000 0.148131
-9.998590 0.000000 0.148131
9.990728 0.000000 0.148131
9.776036 0.000000 0.148131
7.144298 0.000000 0.148131
-2.747727 0.000000 0.148131
2.747865 0.000000 0.148131
-7.144437 0.000000 0.148131
-9.775646 0.000000 0.148131
-9.993751 0.000000 0.148131
-9.998831 0.000000 0.148131
-9.998590 0.000000 0.148131
9.990728 0.000000 0.148131
9.776036 0.000000 0.148131
7.144298 0.000000 0.148131
-2.747727 0.000000 0.148131
2.747865 0.000000 0.148131
-7.144437 0.000000 0.148131
-9.775646 0.000000 0.148131
-9.993751 0.000000 0.148131
-9.998831 0.000000 0.148131
-9.998590 0.000000 0.148131
