# vtk DataFile Version 4.0
hesp visualization file
ASCII
DATASET UNSTRUCTURED_GRID
POINTS 90 double
1.315435 1.000000 9.013313
2.222704 1.000000 9.013313
3.155648 1.000000 9.013313
4.047648 1.000000 9.013313
4.952147 1.000000 9.013313
5.842698 1.000000 9.013313
6.766349 1.000000 9.013313
7.633599 1.000000 9.013313
8.530209 1.000000 9.013313
9.491607 1.000000 9.013313
1.315435 2.000000 9.013313
2.222704 2.000000 9.013313
3.155648 2.000000 9.013313
4.047648 2.000000 9.013313
4.952147 2.000000 9.013313
5.842698 2.000000 9.013313
6.766349 2.000000 9.013313
7.633599 2.000000 9.013313
8.530209 2.000000 9.013313
9.491607 2.000000 9.013313
1.315435 3.000000 9.013313
2.222704 3.000000 9.013313
3.155648 3.000000 9.013313
4.047648 3.000000 9.013313
4.952147 3.000000 9.013313
5.842698 3.000000 9.013313
6.766349 3.000000 9.013313
7.633599 3.000000 9.013313
8.530209 3.000000 9.013313
9.491607 3.000000 9.013313
1.315435 4.000000 9.013313
2.222704 4.000000 9.013313
3.155648 4.000000 9.013313
4.047648 4.000000 9.013313
4.952147 4.000000 9.013313
5.842698 4.000000 9.013313
6.766349 4.000000 9.013313
7.633599 4.000000 9.013313
8.530209 4.000000 9.013313
9.491607 4.000000 9.013313
1.315435 5.000000 9.013313
2.222704 5.000000 9.013313
3.155648 5.000000 9.013313
4.047648 5.000000 9.013313
4.952147 5.000000 9.013313
5.842698 5.000000 9.013313
6.766349 5.000000 9.013313
7.633599 5.000000 9.013313
8.530209 5.000000 9.013313
9.491607 5.000000 9.013313
1.315435 6.000000 9.013313
2.222704 6.000000 9.013313
3.155648 6.000000 9.013313
4.047648 6.000000 9.013313
4.952147 6.000000 9.013313
5.842698 6.000000 9.013313
6.766349 6.000000 9.013313
7.633599 6.000000 9.013313
8.530209 6.000000 9.013313
9.491607 6.000000 9.013313
1.315435 7.000000 9.013313
2.222704 7.000000 9.013313
3.155648 7.000000 9.013313
4.047648 7.000000 9.013313
4.952147 7.000000 9.013313
5.842698 7.000000 9.013313
6.766349 7.000000 9.013313
7.633599 7.000000 9.013313
8.530209 7.000000 9.013313
9.491607 7.000000 9.013313
1.315435 8.000000 9.013313
2.222704 8.000000 9.013313
3.155648 8.000000 9.013313
4.047648 8.000000 9.013313
4.952147 8.000000 9.013313
5.842698 8.000000 9.013313
6.766349 8.000000 9.013313
7.633599 8.000000 9.013313
8.530209 8.000000 9.013313
9.491607 8.000000 9.013313
1.315435 9.000000 9.013313
2.222704 9.000000 9.013313
3.155648 9.000000 9.013313
4.047648 9.000000 9.013313
4.952147 9.000000 9.013313
5.842698 9.000000 9.013313
6.766349 9.000000 9.013313
7.633599 9.000000 9.013313
8.530209 9.000000 9.013313
9.491607 9.000000 9.013313
CELLS 0 0
CELL_TYPES 0
POINT_DATA 90
SCALARS m double
LOOKUP_TABLE default
1.000000
1.000000
1.000000
1.000000
1.000000
1.000000
1.000000
1.000000
1.000000
1.000000
1.000000
1.000000
1.000000
1.000000
1.000000
1.000000
1.000000
1.000000
1.000000
1.000000
1.000000
1.000000
1.000000
1.000000
1.000000
1.000000
1.000000
1.000000
1.000000
1.000000
1.000000
1.000000
1.000000
1.000000
1.000000
1.000000
1.000000
1.000000
1.000000
1.000000
1.000000
1.000000
1.000000
1.000000
1.000000
1.000000
1.000000
1.000000
1.000000
1.000000
1.000000
1.000000
1.000000
1.000000
1.000000
1.000000
1.000000
1.000000
1.000000
1.000000
1.000000
1.000000
1.000000
1.000000
1.000000
1.000000
1.000000
1.000000
1.000000
1.000000
1.000000
1.000000
1.000000
1.000000
1.000000
1.000000
1.000000
1.000000
1.000000
1.000000
1.000000
1.000000
1.000000
1.000000
1.000000
1.000000
1.000000
1.000000
1.000000
1.000000
VECTORS v double
-9.893174 0.000000 0.511095
-2.787270 0.000000 0.511095
2.031996 0.000000 0.511095
-2.739957 0.000000 0.511095
2.683625 0.000000 0.511095
-2.413608 0.000000 0.511095
0.764739 0.000000 0.511095
3.002174 0.000000 0.511095
-3.055317 0.000000 0.511095
-7.593243 0.000000 0.511095
-9.893174 0.000000 0.511095
-2.787270 0.000000 0.511095
2.031996 0.000000 0.511095
-2.739957 0.000000 0.511095
2.683625 0.000000 0.511095
-2.413608 0.000000 0.511095
0.764739 0.000000 0.511095
3.002174 0.000000 0.511095
-3.055317 0.000000 0.511095
-7.593243 0.000000 0.511095
-9.893174 0.000000 0.511095
-2.787270 0.000000 0.511095
2.031996 0.000000 0.511095
-2.739957 0.000000 0.511095
2.683625 0.000000 0.511095
-2.413608 0.000000 0.511095
0.764739 0.000000 0.511095
3.002174 0.000000 0.511095
-3.055317 0.000000 0.511095
-7.593243 0.000000 0.511095
-9.893174 0.000000 0.511095
-2.787270 0.000000 0.511095
2.031996 0.000000 0.511095
-2.739957 0.000000 0.511095
2.683625 0.000000 0.511095
-2.413608 0.000000 0.511095
0.764739 0.000000 0.511095
3.002174 0.000000 0.511095
-3.055317 0.000000 0.511095
-7.593243 0.000000 0.511095
-9.893174 0.000000 0.511095
-2.787270 0.000000 0.511095
2.031996 0.000000 0.511095
-2.739957 0.000000 0.511095
2.683625 0.000000 0.511095
-2.413608 0.000000 0.511095
0.764739 0.000000 0.511095
3.002174 0.000000 0.511095
-3.055317 0.000000 0.511095
-7.593243 0.000000 0.511095
-9.893174 0.000000 0.511095
-2.787270 0.000000 0.511095
2.031996 0.000000 0.511095
-2.739957 0.000000 0.511095
2.683625 0.000000 0.511095
-2.413608 0.000000 0.511095
0.764739 0.000000 0.511095
3.002174 0.000000 0.511095
-3.055317 0.000000 0.511095
-7.593243 0.000000 0.511095
-9.893174 0.000000 0.511095
-2.787270 0.000000 0.511095
2.031996 0.000000 0.511095
-2.739957 0.000000 0.511095
2.683625 0.000000 0.511095
-2.413608 0.000000 0.511095
0.764739 0.000000 0.511095
3.002174 0.000000 0.511095
-3.055317 0.000000 0.511095
-7.593243 0.000000 0.511095
-9.893174 0.000000 0.511095
-2.787270 0.000000 0.511095
2.031996 0.000000 0.511095
-2.739957 0.000000 0.511095
2.683625 0.000000 0.511095
-2.413608 0.000000 0.511095
0.764739 0.000000 0.511095
3.002174 0.000000 0.511095
-3.055317 0.000000 0.511095
-7.593243 0.000000 0.511095
-9.893174 0.000000 0.511095
-2.787270 0.000000 0.511095
2.031996 0.000000 0.511095
-2.739957 0.000000 0.511095
2.683625 0.000000 0.511095
-2.413608 0.000000 0.511095
0.764739 0.000000 0.511095
3.002174 0.000000 0.511095
-3.055317 0.000000 0.511095
-7.593243 0.000000 0.511095
