# vtk DataFile Version 4.0
hesp visualization file
ASCII
DATASET UNSTRUCTURED_GRID
POINTS 90 double
0.983877 1.000000 9.028405
2.094507 1.000000 9.028405
3.061101 1.000000 9.028405
4.037292 1.000000 9.028405
4.933260 1.000000 9.028405
5.859941 1.000000 9.028405
6.743970 1.000000 9.028405
7.651838 1.000000 9.028405
8.591531 1.000000 9.028405
9.520720 1.000000 9.028405
0.983877 2.000000 9.028405
2.094507 2.000000 9.028405
3.061101 2.000000 9.028405
4.037292 2.000000 9.028405
4.933260 2.000000 9.028405
5.859941 2.000000 9.028405
6.743970 2.000000 9.028405
7.651838 2.000000 9.028405
8.591531 2.000000 9.028405
9.520720 2.000000 9.028405
0.983877 3.000000 9.028405
2.094507 3.000000 9.028405
3.061101 3.000000 9.028405
4.037292 3.000000 9.028405
4.933260 3.000000 9.028405
5.859941 3.000000 9.028405
6.743970 3.000000 9.028405
7.651838 3.000000 9.028405
8.591531 3.000000 9.028405
9.520720 3.000000 9.028405
0.983877 4.000000 9.028405
2.094507 4.000000 9.028405
3.061101 4.000000 9.028405
4.037292 4.000000 9.028405
4.933260 4.000000 9.028405
5.859941 4.000000 9.028405
6.743970 4.000000 9.028405
7.651838 4.000000 9.028405
8.591531 4.000000 9.028405
9.520720 4.000000 9.028405
0.983877 5.000000 9.028405
2.094507 5.000000 9.028405
3.061101 5.000000 9.028405
4.037292 5.000000 9.028405
4.933260 5.000000 9.028405
5.859941 5.000000 9.028405
6.743970 5.000000 9.028405
7.651838 5.000000 9.028405
8.591531 5.000000 9.028405
9.520720 5.000000 9.028405
0.983877 6.000000 9.028405
2.094507 6.000000 9.028405
3.061101 6.000000 9.028405
4.037292 6.000000 9.028405
4.933260 6.000000 9.028405
5.859941 6.000000 9.028405
6.743970 6.000000 9.028405
7.651838 6.000000 9.028405
8.591531 6.000000 9.028405
9.520720 6.000000 9.028405
0.983877 7.000000 9.028405
2.094507 7.000000 9.028405
3.061101 7.000000 9.028405
4.037292 7.000000 9.028405
4.933260 7.000000 9.028405
5.859941 7.000000 9.028405
6.743970 7.000000 9.028405
7.651838 7.000000 9.028405
8.591531 7.000000 9.028405
9.520720 7.000000 9.028405
0.983877 8.000000 9.028405
2.094507 8.000000 9.028405
3.061101 8.000000 9.028405
4.037292 8.000000 9.028405
4.933260 8.000000 9.028405
5.859941 8.000000 9.028405
6.743970 8.000000 9.028405
7.651838 8.000000 9.028405
8.591531 8.000000 9.028405
9.520720 8.000000 9.028405
0.983877 9.000000 9.028405
2.094507 9.000000 9.028405
3.061101 9.000000 9.028405
4.037292 9.000000 9.028405
4.933260 9.000000 9.028405
5.859941 9.000000 9.028405
6.743970 9.000000 9.028405
7.651838 9.000000 9.028405
8.591531 9.000000 9.028405
9.520720 9.000000 9.028405
CELLS 0 0
CELL_TYPES 0
POINT_DATA 90
SCALARS m double
LOOKUP_TABLE default
1.000000
1.000000
1.000000
1.000000
1.000000
1.000000
1.000000
1.000000
1.000000
1.000000
1.000000
1.000000
1.000000
1.000000
1.000000
1.000000
1.000000
1.000000
1.000000
1.000000
1.000000
1.000000
1.000000
1.000000
1.000000
1.000000
1.000000
1.000000
1.000000
1.000000
1.000000
1.000000
1.000000
1.000000
1.000000
1.000000
1.000000
1.000000
1.000000
1.000000
1.000000
1.000000
1.000000
1.000000
1.000000
1.000000
1.000000
1.000000
1.000000
1.000000
1.000000
1.000000
1.000000
1.000000
1.000000
1.000000
1.000000
1.000000
1.000000
1.000000
1.000000
1.000000
1.000000
1.000000
1.000000
1.000000
1.000000
1.000000
1.000000
1.000000
1.000000
1.000000
1.000000
1.000000
1.000000
1.000000
1.000000
1.000000
1.000000
1.000000
1.000000
1.000000
1.000000
1.000000
1.000000
1.000000
1.000000
1.000000
1.000000
1.000000
VECTORS v double
-14.387302 0.000000 0.746528
-10.598562 0.000000 0.746528
-6.113423 0.000000 0.746528
-4.044318 0.000000 0.746528
-0.264245 0.000000 0.746528
-1.424641 0.000000 0.746528
2.383554 0.000000 0.746528
-1.660713 0.000000 0.746528
4.088794 0.000000 0.746528
12.020827 0.000000 0.746528
-14.387302 0.000000 0.746528
-10.598562 0.000000 0.746528
-6.113423 0.000000 0.746528
-4.044318 0.000000 0.746528
-0.264245 0.000000 0.746528
-1.424641 0.000000 0.746528
2.383554 0.000000 0.746528
-1.660713 0.000000 0.746528
4.088794 0.000000 0.746528
12.020827 0.000000 0.746528
-14.387302 0.000000 0.746528
-10.598562 0.000000 0.746528
-6.113423 0.000000 0.746528
-4.044318 0.000000 0.746528
-0.264245 0.000000 0.746528
-1.424641 0.000000 0.746528
2.383554 0.000000 0.746528
-1.660713 0.000000 0.746528
4.088794 0.000000 0.746528
12.020827 0.000000 0.746528
-14.387302 0.000000 0.746528
-10.598562 0.000000 0.746528
-6.113423 0.000000 0.746528
-4.044318 0.000000 0.746528
-0.264245 0.000000 0.746528
-1.424641 0.000000 0.746528
2.383554 0.000000 0.746528
-1.660713 0.000000 0.746528
4.088794 0.000000 0.746528
12.020827 0.000000 0.746528
-14.387302 0.000000 0.746528
-10.598562 0.000000 0.746528
-6.113423 0.000000 0.746528
-4.044318 0.000000 0.746528
-0.264245 0.000000 0.746528
-1.424641 0.000000 0.746528
2.383554 0.000000 0.746528
-1.660713 0.000000 0.746528
4.088794 0.000000 0.746528
12.020827 0.000000 0.746528
-14.387302 0.000000 0.746528
-10.598562 0.000000 0.746528
-6.113423 0.000000 0.746528
-4.044318 0.000000 0.746528
-0.264245 0.000000 0.746528
-1.424641 0.000000 0.746528
2.383554 0.000000 0.746528
-1.660713 0.000000 0.746528
4.088794 0.000000 0.746528
12.020827 0.000000 0.746528
-14.387302 0.000000 0.746528
-10.598562 0.000000 0.746528
-6.113423 0.000000 0.746528
-4.044318 0.000000 0.746528
-0.264245 0.000000 0.746528
-1.424641 0.000000 0.746528
2.383554 0.000000 0.746528
-1.660713 0.000000 0.746528
4.088794 0.000000 0.746528
12.020827 0.000000 0.746528
-14.387302 0.000000 0.746528
-10.598562 0.000000 0.746528
-6.113423 0.000000 0.746528
-4.044318 0.000000 0.746528
-0.264245 0.000000 0.746528
-1.424641 0.000000 0.746528
2.383554 0.000000 0.746528
-1.660713 0.000000 0.746528
4.088794 0.000000 0.746528
12.020827 0.000000 0.746528
-14.387302 0.000000 0.746528
-10.598562 0.000000 0.746528
-6.113423 0.000000 0.746528
-4.044318 0.000000 0.746528
-0.264245 0.000000 0.746528
-1.424641 0.000000 0.746528
2.383554 0.000000 0.746528
-1.660713 0.000000 0.746528
4.088794 0.000000 0.746528
12.020827 0.000000 0.746528
