# vtk DataFile Version 4.0
hesp visualization file
ASCII
DATASET UNSTRUCTURED_GRID
POINTS 90 double
1.249769 1.000000 9.003090
2.238247 1.000000 9.003090
3.173649 1.000000 9.003090
4.034746 1.000000 9.003090
4.965255 1.000000 9.003090
5.826350 1.000000 9.003090
6.761750 1.000000 9.003090
7.750149 1.000000 9.003090
8.749080 1.000000 9.003090
9.749047 1.000000 9.003090
1.249769 2.000000 9.003090
2.238247 2.000000 9.003090
3.173649 2.000000 9.003090
4.034746 2.000000 9.003090
4.965255 2.000000 9.003090
5.826350 2.000000 9.003090
6.761750 2.000000 9.003090
7.750149 2.000000 9.003090
8.749080 2.000000 9.003090
9.749047 2.000000 9.003090
1.249769 3.000000 9.003090
2.238247 3.000000 9.003090
3.173649 3.000000 9.003090
4.034746 3.000000 9.003090
4.965255 3.000000 9.003090
5.826350 3.000000 9.003090
6.761750 3.000000 9.003090
7.750149 3.000000 9.003090
8.749080 3.000000 9.003090
9.749047 3.000000 9.003090
1.249769 4.000000 9.003090
2.238247 4.000000 9.003090
3.173649 4.000000 9.003090
4.034746 4.000000 9.003090
4.965255 4.000000 9.003090
5.826350 4.000000 9.003090
6.761750 4.000000 9.003090
7.750149 4.000000 9.003090
8.749080 4.000000 9.003090
9.749047 4.000000 9.003090
1.249769 5.000000 9.003090
2.238247 5.000000 9.003090
3.173649 5.000000 9.003090
4.034746 5.000000 9.003090
4.965255 5.000000 9.003090
5.826350 5.000000 9.003090
6.761750 5.000000 9.003090
7.750149 5.000000 9.003090
8.749080 5.000000 9.003090
9.749047 5.000000 9.003090
1.249769 6.000000 9.003090
2.238247 6.000000 9.003090
3.173649 6.000000 9.003090
4.034746 6.000000 9.003090
4.965255 6.000000 9.003090
5.826350 6.000000 9.003090
6.761750 6.000000 9.003090
7.750149 6.000000 9.003090
8.749080 6.000000 9.003090
9.749047 6.000000 9.003090
1.249769 7.000000 9.003090
2.238247 7.000000 9.003090
3.173649 7.000000 9.003090
4.034746 7.000000 9.003090
4.965255 7.000000 9.003090
5.826350 7.000000 9.003090
6.761750 7.000000 9.003090
7.750149 7.000000 9.003090
8.749080 7.000000 9.003090
9.749047 7.000000 9.003090
1.249769 8.000000 9.003090
2.238247 8.000000 9.003090
3.173649 8.000000 9.003090
4.034746 8.000000 9.003090
4.965255 8.000000 9.003090
5.826350 8.000000 9.003090
6.761750 8.000000 9.003090
7.750149 8.000000 9.003090
8.749080 8.000000 9.003090
9.749047 8.000000 9.003090
1.249769 9.000000 9.003090
2.238247 9.000000 9.003090
3.173649 9.000000 9.003090
4.034746 9.000000 9.003090
4.965255 9.000000 9.003090
5.826350 9.000000 9.003090
6.761750 9.000000 9.003090
7.750149 9.000000 9.003090
8.749080 9.000000 9.003090
9.749047 9.000000 9.003090
CELLS 0 0
CELL_TYPES 0
POINT_DATA 90
SCALARS m double
LOOKUP_TABLE default
1.000000
1.000000
1.000000
1.000000
1.000000
1.000000
1.000000
1.000000
1.000000
1.000000
1.000000
1.000000
1.000000
1.000000
1.000000
1.000000
1.000000
1.000000
1.000000
1.000000
1.000000
1.000000
1.000000
1.000000
1.000000
1.000000
1.000000
1.000000
1.000000
1.000000
1.000000
1.000000
1.000000
1.000000
1.000000
1.000000
1.000000
1.000000
1.000000
1.000000
1.000000
1.000000
1.000000
1.000000
1.000000
1.000000
1.000000
1.000000
1.000000
1.000000
1.000000
1.000000
1.000000
1.000000
1.000000
1.000000
1.000000
1.000000
1.000000
1.000000
1.000000
1.000000
1.000000
1.000000
1.000000
1.000000
1.000000
1.000000
1.000000
1.000000
1.000000
1.000000
1.000000
1.000000
1.000000
1.000000
1.000000
1.000000
1.000000
1.000000
1.000000
1.000000
1.000000
1.000000
1.000000
1.000000
1.000000
1.000000
1.000000
1.000000
VECTORS v double
9.596419 0.000000 0.246232
7.018580 0.000000 0.246232
-0.967869 0.000000 0.246232
-1.800406 0.000000 0.246232
1.800438 0.000000 0.246232
0.968128 0.000000 0.246232
-7.021455 0.000000 0.246232
-9.623208 0.000000 0.246232
-9.972383 0.000000 0.246232
-9.998293 0.000000 0.246232
9.596419 0.000000 0.246232
7.018580 0.000000 0.246232
-0.967869 0.000000 0.246232
-1.800406 0.000000 0.246232
1.800438 0.000000 0.246232
0.968128 0.000000 0.246232
-7.021455 0.000000 0.246232
-9.623208 0.000000 0.246232
-9.972383 0.000000 0.246232
-9.998293 0.000000 0.246232
9.596419 0.000000 0.246232
7.018580 0.000000 0.246232
-0.967869 0.000000 0.246232
-1.800406 0.000000 0.246232
1.800438 0.000000 0.246232
0.968128 0.000000 0.246232
-7.021455 0.000000 0.246232
-9.623208 0.000000 0.246232
-9.972383 0.000000 0.246232
-9.998293 0.000000 0.246232
9.596419 0.000000 0.246232
7.018580 0.000000 0.246232
-0.967869 0.000000 0.246232
-1.800406 0.000000 0.246232
1.800438 0.000000 0.246232
0.968128 0.000000 0.246232
-7.021455 0.000000 0.246232
-9.623208 0.000000 0.246232
-9.972383 0.000000 0.246232
-9.998293 0.000000 0.246232
9.596419 0.000000 0.246232
7.018580 0.000000 0.246232
-0.967869 0.000000 0.246232
-1.800406 0.000000 0.246232
1.800438 0.000000 0.246232
0.968128 0.000000 0.246232
-7.021455 0.000000 0.246232
-9.623208 0.000000 0.246232
-9.972383 0.000000 0.246232
-9.998293 0.000000 0.246232
9.596419 0.000000 0.246232
7.018580 0.000000 0.246232
-0.967869 0.000000 0.246232
-1.800406 0.000000 0.246232
1.800438 0.000000 0.246232
0.968128 0.000000 0.246232
-7.021455 0.000000 0.246232
-9.623208 0.000000 0.246232
-9.972383 0.000000 0.246232
-9.998293 0.000000 0.246232
9.596419 0.000000 0.246232
7.018580 0.000000 0.246232
-0.967869 0.000000 0.246232
-1.800406 0.000000 0.246232
1.800438 0.000000 0.246232
0.968128 0.000000 0.246232
-7.021455 0.000000 0.246232
-9.623208 0.000000 0.246232
-9.972383 0.000000 0.246232
-9.998293 0.000000 0.246232
9.596419 0.000000 0.246232
7.018580 0.000000 0.246232
-0.967869 0.000000 0.246232
-1.800406 0.000000 0.246232
1.800438 0.000000 0.246232
0.968128 0.000000 0.246232
-7.021455 0.000000 0.246232
-9.623208 0.000000 0.246232
-9.972383 0.000000 0.246232
-9.998293 0.000000 0.246232
9.596419 0.000000 0.246232
7.018580 0.000000 0.246232
-0.967869 0.000000 0.246232
-1.800406 0.000000 0.246232
1.800438 0.000000 0.246232
0.968128 0.000000 0.246232
-7.021455 0.000000 0.246232
-9.623208 0.000000 0.246232
-9.972383 0.000000 0.246232
-9.998293 0.000000 0.246232
