# vtk DataFile Version 4.0
hesp visualization file
ASCII
DATASET UNSTRUCTURED_GRID
POINTS 90 double
1.214058 1.000000 9.017716
2.203979 1.000000 9.017716
3.153343 1.000000 9.017716
4.035985 1.000000 9.017716
4.962498 1.000000 9.017716
5.838075 1.000000 9.017716
6.756369 1.000000 9.017716
7.659848 1.000000 9.017716
8.526622 1.000000 9.017716
9.447262 1.000000 9.017716
1.214058 2.000000 9.017716
2.203979 2.000000 9.017716
3.153343 2.000000 9.017716
4.035985 2.000000 9.017716
4.962498 2.000000 9.017716
5.838075 2.000000 9.017716
6.756369 2.000000 9.017716
7.659848 2.000000 9.017716
8.526622 2.000000 9.017716
9.447262 2.000000 9.017716
1.214058 3.000000 9.017716
2.203979 3.000000 9.017716
3.153343 3.000000 9.017716
4.035985 3.000000 9.017716
4.962498 3.000000 9.017716
5.838075 3.000000 9.017716
6.756369 3.000000 9.017716
7.659848 3.000000 9.017716
8.526622 3.000000 9.017716
9.447262 3.000000 9.017716
1.214058 4.000000 9.017716
2.203979 4.000000 9.017716
3.153343 4.000000 9.017716
4.035985 4.000000 9.017716
4.962498 4.000000 9.017716
5.838075 4.000000 9.017716
6.756369 4.000000 9.017716
7.659848 4.000000 9.017716
8.526622 4.000000 9.017716
9.447262 4.000000 9.017716
1.214058 5.000000 9.017716
2.203979 5.000000 9.017716
3.153343 5.000000 9.017716
4.035985 5.000000 9.017716
4.962498 5.000000 9.017716
5.838075 5.000000 9.017716
6.756369 5.000000 9.017716
7.659848 5.000000 9.017716
8.526622 5.000000 9.017716
9.447262 5.000000 9.017716
1.214058 6.000000 9.017716
2.203979 6.000000 9.017716
3.153343 6.000000 9.017716
4.035985 6.000000 9.017716
4.962498 6.000000 9.017716
5.838075 6.000000 9.017716
6.756369 6.000000 9.017716
7.659848 6.000000 9.017716
8.526622 6.000000 9.017716
9.447262 6.000000 9.017716
1.214058 7.000000 9.017716
2.203979 7.000000 9.017716
3.153343 7.000000 9.017716
4.035985 7.000000 9.017716
4.962498 7.000000 9.017716
5.838075 7.000000 9.017716
6.756369 7.000000 9.017716
7.659848 7.000000 9.017716
8.526622 7.000000 9.017716
9.447262 7.000000 9.017716
1.214058 8.000000 9.017716
2.203979 8.000000 9.017716
3.153343 8.000000 9.017716
4.035985 8.000000 9.017716
4.962498 8.000000 9.017716
5.838075 8.000000 9.017716
6.756369 8.000000 9.017716
7.659848 8.000000 9.017716
8.526622 8.000000 9.017716
9.447262 8.000000 9.017716
1.214058 9.000000 9.017716
2.203979 9.000000 9.017716
3.153343 9.000000 9.017716
4.035985 9.000000 9.017716
4.962498 9.000000 9.017716
5.838075 9.000000 9.017716
6.756369 9.000000 9.017716
7.659848 9.000000 9.017716
8.526622 9.000000 9.017716
9.447262 9.000000 9.017716
CELLS 0 0
CELL_TYPES 0
POINT_DATA 90
SCALARS m double
LOOKUP_TABLE default
1.000000
1.000000
1.000000
1.000000
1.000000
1.000000
1.000000
1.000000
1.000000
1.000000
1.000000
1.000000
1.000000
1.000000
1.000000
1.000000
1.000000
1.000000
1.000000
1.000000
1.000000
1.000000
1.000000
1.000000
1.000000
1.000000
1.000000
1.000000
1.000000
1.000000
1.000000
1.000000
1.000000
1.000000
1.000000
1.000000
1.000000
1.000000
1.000000
1.000000
1.000000
1.000000
1.000000
1.000000
1.000000
1.000000
1.000000
1.000000
1.000000
1.000000
1.000000
1.000000
1.000000
1.000000
1.000000
1.000000
1.000000
1.000000
1.000000
1.000000
1.000000
1.000000
1.000000
1.000000
1.000000
1.000000
1.000000
1.000000
1.000000
1.000000
1.000000
1.000000
1.000000
1.000000
1.000000
1.000000
1.000000
1.000000
1.000000
1.000000
1.000000
1.000000
1.000000
1.000000
1.000000
1.000000
1.000000
1.000000
1.000000
1.000000
VECTORS v double
-14.333149 0.000000 0.589572
-2.791210 0.000000 0.589572
-2.973236 0.000000 0.589572
0.281680 0.000000 0.589572
-0.625508 0.000000 0.589572
1.409424 0.000000 0.589572
-2.699656 0.000000 0.589572
2.651462 0.000000 0.589572
2.022223 0.000000 0.589572
-2.942067 0.000000 0.589572
-14.333149 0.000000 0.589572
-2.791210 0.000000 0.589572
-2.973236 0.000000 0.589572
0.281680 0.000000 0.589572
-0.625508 0.000000 0.589572
1.409424 0.000000 0.589572
-2.699656 0.000000 0.589572
2.651462 0.000000 0.589572
2.022223 0.000000 0.589572
-2.942067 0.000000 0.589572
-14.333149 0.000000 0.589572
-2.791210 0.000000 0.589572
-2.973236 0.000000 0.589572
0.281680 0.000000 0.589572
-0.625508 0.000000 0.589572
1.409424 0.000000 0.589572
-2.699656 0.000000 0.589572
2.651462 0.000000 0.589572
2.022223 0.000000 0.589572
-2.942067 0.000000 0.589572
-14.333149 0.000000 0.589572
-2.791210 0.000000 0.589572
-2.973236 0.000000 0.589572
0.281680 0.000000 0.589572
-0.625508 0.000000 0.589572
1.409424 0.000000 0.589572
-2.699656 0.000000 0.589572
2.651462 0.000000 0.589572
2.022223 0.000000 0.589572
-2.942067 0.000000 0.589572
-14.333149 0.000000 0.589572
-2.791210 0.000000 0.589572
-2.973236 0.000000 0.589572
0.281680 0.000000 0.589572
-0.625508 0.000000 0.589572
1.409424 0.000000 0.589572
-2.699656 0.000000 0.589572
2.651462 0.000000 0.589572
2.022223 0.000000 0.589572
-2.942067 0.000000 0.589572
-14.333149 0.000000 0.589572
-2.791210 0.000000 0.589572
-2.973236 0.000000 0.589572
0.281680 0.000000 0.589572
-0.625508 0.000000 0.589572
1.409424 0.000000 0.589572
-2.699656 0.000000 0.589572
2.651462 0.000000 0.589572
2.022223 0.000000 0.589572
-2.942067 0.000000 0.589572
-14.333149 0.000000 0.589572
-2.791210 0.000000 0.589572
-2.973236 0.000000 0.589572
0.281680 0.000000 0.589572
-0.625508 0.000000 0.589572
1.409424 0.000000 0.589572
-2.699656 0.000000 0.589572
2.651462 0.000000 0.589572
2.022223 0.000000 0.589572
-2.942067 0.000000 0.589572
-14.333149 0.000000 0.589572
-2.791210 0.000000 0.589572
-2.973236 0.000000 0.589572
0.281680 0.000000 0.589572
-0.625508 0.000000 0.589572
1.409424 0.000000 0.589572
-2.699656 0.000000 0.589572
2.651462 0.000000 0.589572
2.022223 0.000000 0.589572
-2.942067 0.000000 0.589572
-14.333149 0.000000 0.589572
-2.791210 0.000000 0.589572
-2.973236 0.000000 0.589572
0.281680 0.000000 0.589572
-0.625508 0.000000 0.589572
1.409424 0.000000 0.589572
-2.699656 0.000000 0.589572
2.651462 0.000000 0.589572
2.022223 0.000000 0.589572
-2.942067 0.000000 0.589572
