# vtk DataFile Version 4.0
hesp visualization file
ASCII
DATASET UNSTRUCTURED_GRID
POINTS 90 double
1.293880 1.000000 9.014355
2.217606 1.000000 9.014355
3.158792 1.000000 9.014355
4.042528 1.000000 9.014355
4.957120 1.000000 9.014355
5.838618 1.000000 9.014355
6.766749 1.000000 9.014355
7.640095 1.000000 9.014355
8.525406 1.000000 9.014355
9.477245 1.000000 9.014355
1.293880 2.000000 9.014355
2.217606 2.000000 9.014355
3.158792 2.000000 9.014355
4.042528 2.000000 9.014355
4.957120 2.000000 9.014355
5.838618 2.000000 9.014355
6.766749 2.000000 9.014355
7.640095 2.000000 9.014355
8.525406 2.000000 9.014355
9.477245 2.000000 9.014355
1.293880 3.000000 9.014355
2.217606 3.000000 9.014355
3.158792 3.000000 9.014355
4.042528 3.000000 9.014355
4.957120 3.000000 9.014355
5.838618 3.000000 9.014355
6.766749 3.000000 9.014355
7.640095 3.000000 9.014355
8.525406 3.000000 9.014355
9.477245 3.000000 9.014355
1.293880 4.000000 9.014355
2.217606 4.000000 9.014355
3.158792 4.000000 9.014355
4.042528 4.000000 9.014355
4.957120 4.000000 9.014355
5.838618 4.000000 9.014355
6.766749 4.000000 9.014355
7.640095 4.000000 9.014355
8.525406 4.000000 9.014355
9.477245 4.000000 9.014355
1.293880 5.000000 9.014355
2.217606 5.000000 9.014355
3.158792 5.000000 9.014355
4.042528 5.000000 9.014355
4.957120 5.000000 9.014355
5.838618 5.000000 9.014355
6.766749 5.000000 9.014355
7.640095 5.000000 9.014355
8.525406 5.000000 9.014355
9.477245 5.000000 9.014355
1.293880 6.000000 9.014355
2.217606 6.000000 9.014355
3.158792 6.000000 9.014355
4.042528 6.000000 9.014355
4.957120 6.000000 9.014355
5.838618 6.000000 9.014355
6.766749 6.000000 9.014355
7.640095 6.000000 9.014355
8.525406 6.000000 9.014355
9.477245 6.000000 9.014355
1.293880 7.000000 9.014355
2.217606 7.000000 9.014355
3.158792 7.000000 9.014355
4.042528 7.000000 9.014355
4.957120 7.000000 9.014355
5.838618 7.000000 9.014355
6.766749 7.000000 9.014355
7.640095 7.000000 9.014355
8.525406 7.000000 9.014355
9.477245 7.000000 9.014355
1.293880 8.000000 9.014355
2.217606 8.000000 9.014355
3.158792 8.000000 9.014355
4.042528 8.000000 9.014355
4.957120 8.000000 9.014355
5.838618 8.000000 9.014355
6.766749 8.000000 9.014355
7.640095 8.000000 9.014355
8.525406 8.000000 9.014355
9.477245 8.000000 9.014355
1.293880 9.000000 9.014355
2.217606 9.000000 9.014355
3.158792 9.000000 9.014355
4.042528 9.000000 9.014355
4.957120 9.000000 9.014355
5.838618 9.000000 9.014355
6.766749 9.000000 9.014355
7.640095 9.000000 9.014355
8.525406 9.000000 9.014355
9.477245 9.000000 9.014355
CELLS 0 0
CELL_TYPES 0
POINT_DATA 90
SCALARS m double
LOOKUP_TABLE default
1.000000
1.000000
1.000000
1.000000
1.000000
1.000000
1.000000
1.000000
1.000000
1.000000
1.000000
1.000000
1.000000
1.000000
1.000000
1.000000
1.000000
1.000000
1.000000
1.000000
1.000000
1.000000
1.000000
1.000000
1.000000
1.000000
1.000000
1.000000
1.000000
1.000000
1.000000
1.000000
1.000000
1.000000
1.000000
1.000000
1.000000
1.000000
1.000000
1.000000
1.000000
1.000000
1.000000
1.000000
1.000000
1.000000
1.000000
1.000000
1.000000
1.000000
1.000000
1.000000
1.000000
1.000000
1.000000
1.000000
1.000000
1.000000
1.000000
1.000000
1.000000
1.000000
1.000000
1.000000
1.000000
1.000000
1.000000
1.000000
1.000000
1.000000
1.000000
1.000000
1.000000
1.000000
1.000000
1.000000
1.000000
1.000000
1.000000
1.000000
1.000000
1.000000
1.000000
1.000000
1.000000
1.000000
1.000000
1.000000
1.000000
1.000000
VECTORS v double
-11.606788 0.000000 0.530714
-2.335912 0.000000 0.530714
1.055285 0.000000 0.530714
-2.317267 0.000000 0.530714
2.225317 0.000000 0.530714
-1.619379 0.000000 0.530714
-0.360146 0.000000 0.530714
3.435031 0.000000 0.530714
-1.739489 0.000000 0.530714
-6.736687 0.000000 0.530714
-11.606788 0.000000 0.530714
-2.335912 0.000000 0.530714
1.055285 0.000000 0.530714
-2.317267 0.000000 0.530714
2.225317 0.000000 0.530714
-1.619379 0.000000 0.530714
-0.360146 0.000000 0.530714
3.435031 0.000000 0.530714
-1.739489 0.000000 0.530714
-6.736687 0.000000 0.530714
-11.606788 0.000000 0.530714
-2.335912 0.000000 0.530714
1.055285 0.000000 0.530714
-2.317267 0.000000 0.530714
2.225317 0.000000 0.530714
-1.619379 0.000000 0.530714
-0.360146 0.000000 0.530714
3.435031 0.000000 0.530714
-1.739489 0.000000 0.530714
-6.736687 0.000000 0.530714
-11.606788 0.000000 0.530714
-2.335912 0.000000 0.530714
1.055285 0.000000 0.530714
-2.317267 0.000000 0.530714
2.225317 0.000000 0.530714
-1.619379 0.000000 0.530714
-0.360146 0.000000 0.530714
3.435031 0.000000 0.530714
-1.739489 0.000000 0.530714
-6.736687 0.000000 0.530714
-11.606788 0.000000 0.530714
-2.335912 0.000000 0.530714
1.055285 0.000000 0.530714
-2.317267 0.000000 0.530714
2.225317 0.000000 0.530714
-1.619379 0.000000 0.530714
-0.360146 0.000000 0.530714
3.435031 0.000000 0.530714
-1.739489 0.000000 0.530714
-6.736687 0.000000 0.530714
-11.606788 0.000000 0.530714
-2.335912 0.000000 0.530714
1.055285 0.000000 0.530714
-2.317267 0.000000 0.530714
2.225317 0.000000 0.530714
-1.619379 0.000000 0.530714
-0.360146 0.000000 0.530714
3.435031 0.000000 0.530714
-1.739489 0.000000 0.530714
-6.736687 0.000000 0.530714
-11.606788 0.000000 0.530714
-2.335912 0.000000 0.530714
1.055285 0.000000 0.530714
-2.317267 0.000000 0.530714
2.225317 0.000000 0.530714
-1.619379 0.000000 0.530714
-0.360146 0.000000 0.530714
3.435031 0.000000 0.530714
-1.739489 0.000000 0.530714
-6.736687 0.000000 0.530714
-11.606788 0.000000 0.530714
-2.335912 0.000000 0.530714
1.055285 0.000000 0.530714
-2.317267 0.000000 0.530714
2.225317 0.000000 0.530714
-1.619379 0.000000 0.530714
-0.360146 0.000000 0.530714
3.435031 0.000000 0.530714
-1.739489 0.000000 0.530714
-6.736687 0.000000 0.530714
-11.606788 0.000000 0.530714
-2.335912 0.000000 0.530714
1.055285 0.000000 0.530714
-2.317267 0.000000 0.530714
2.225317 0.000000 0.530714
-1.619379 0.000000 0.530714
-0.360146 0.000000 0.530714
3.435031 0.000000 0.530714
-1.739489 0.000000 0.530714
-6.736687 0.000000 0.530714
