# vtk DataFile Version 4.0
hesp visualization file
ASCII
DATASET UNSTRUCTURED_GRID
POINTS 90 double
1.360005 1.000000 9.008285
2.263586 1.000000 9.008285
3.133140 1.000000 9.008285
4.063233 1.000000 9.008285
4.936758 1.000000 9.008285
5.866776 1.000000 9.008285
6.735473 1.000000 9.008285
7.632246 1.000000 9.008285
8.596798 1.000000 9.008285
9.590028 1.000000 9.008285
1.360005 2.000000 9.008285
2.263586 2.000000 9.008285
3.133140 2.000000 9.008285
4.063233 2.000000 9.008285
4.936758 2.000000 9.008285
5.866776 2.000000 9.008285
6.735473 2.000000 9.008285
7.632246 2.000000 9.008285
8.596798 2.000000 9.008285
9.590028 2.000000 9.008285
1.360005 3.000000 9.008285
2.263586 3.000000 9.008285
3.133140 3.000000 9.008285
4.063233 3.000000 9.008285
4.936758 3.000000 9.008285
5.866776 3.000000 9.008285
6.735473 3.000000 9.008285
7.632246 3.000000 9.008285
8.596798 3.000000 9.008285
9.590028 3.000000 9.008285
1.360005 4.000000 9.008285
2.263586 4.000000 9.008285
3.133140 4.000000 9.008285
4.063233 4.000000 9.008285
4.936758 4.000000 9.008285
5.866776 4.000000 9.008285
6.735473 4.000000 9.008285
7.632246 4.000000 9.008285
8.596798 4.000000 9.008285
9.590028 4.000000 9.008285
1.360005 5.000000 9.008285
2.263586 5.000000 9.008285
3.133140 5.000000 9.008285
4.063233 5.000000 9.008285
4.936758 5.000000 9.008285
5.866776 5.000000 9.008285
6.735473 5.000000 9.008285
7.632246 5.000000 9.008285
8.596798 5.000000 9.008285
9.590028 5.000000 9.008285
1.360005 6.000000 9.008285
2.263586 6.000000 9.008285
3.133140 6.000000 9.008285
4.063233 6.000000 9.008285
4.936758 6.000000 9.008285
5.866776 6.000000 9.008285
6.735473 6.000000 9.008285
7.632246 6.000000 9.008285
8.596798 6.000000 9.008285
9.590028 6.000000 9.008285
1.360005 7.000000 9.008285
2.263586 7.000000 9.008285
3.133140 7.000000 9.008285
4.063233 7.000000 9.008285
4.936758 7.000000 9.008285
5.866776 7.000000 9.008285
6.735473 7.000000 9.008285
7.632246 7.000000 9.008285
8.596798 7.000000 9.008285
9.590028 7.000000 9.008285
1.360005 8.000000 9.008285
2.263586 8.000000 9.008285
3.133140 8.000000 9.008285
4.063233 8.000000 9.008285
4.936758 8.000000 9.008285
5.866776 8.000000 9.008285
6.735473 8.000000 9.008285
7.632246 8.000000 9.008285
8.596798 8.000000 9.008285
9.590028 8.000000 9.008285
1.360005 9.000000 9.008285
2.263586 9.000000 9.008285
3.133140 9.000000 9.008285
4.063233 9.000000 9.008285
4.936758 9.000000 9.008285
5.866776 9.000000 9.008285
6.735473 9.000000 9.008285
7.632246 9.000000 9.008285
8.596798 9.000000 9.008285
9.590028 9.000000 9.008285
CELLS 0 0
CELL_TYPES 0
POINT_DATA 90
SCALARS m double
LOOKUP_TABLE default
1.000000
1.000000
1.000000
1.000000
1.000000
1.000000
1.000000
1.000000
1.000000
1.000000
1.000000
1.000000
1.000000
1.000000
1.000000
1.000000
1.000000
1.000000
1.000000
1.000000
1.000000
1.000000
1.000000
1.000000
1.000000
1.000000
1.000000
1.000000
1.000000
1.000000
1.000000
1.000000
1.000000
1.000000
1.000000
1.000000
1.000000
1.000000
1.000000
1.000000
1.000000
1.000000
1.000000
1.000000
1.000000
1.000000
1.000000
1.000000
1.000000
1.000000
1.000000
1.000000
1.000000
1.000000
1.000000
1.000000
1.000000
1.000000
1.000000
1.000000
1.000000
1.000000
1.000000
1.000000
1.000000
1.000000
1.000000
1.000000
1.000000
1.000000
1.000000
1.000000
1.000000
1.000000
1.000000
1.000000
1.000000
1.000000
1.000000
1.000000
1.000000
1.000000
1.000000
1.000000
1.000000
1.000000
1.000000
1.000000
1.000000
1.000000
VECTORS v double
1.808768 0.000000 0.403187
-3.438818 0.000000 0.403187
0.077937 0.000000 0.403187
1.271878 0.000000 0.403187
-1.274272 0.000000 0.403187
-0.104339 0.000000 0.403187
3.190078 0.000000 0.403187
-3.449011 0.000000 0.403187
-8.355014 0.000000 0.403187
-9.727242 0.000000 0.403187
1.808768 0.000000 0.403187
-3.438818 0.000000 0.403187
0.077937 0.000000 0.403187
1.271878 0.000000 0.403187
-1.274272 0.000000 0.403187
-0.104339 0.000000 0.403187
3.190078 0.000000 0.403187
-3.449011 0.000000 0.403187
-8.355014 0.000000 0.403187
-9.727242 0.000000 0.403187
1.808768 0.000000 0.403187
-3.438818 0.000000 0.403187
0.077937 0.000000 0.403187
1.271878 0.000000 0.403187
-1.274272 0.000000 0.403187
-0.104339 0.000000 0.403187
3.190078 0.000000 0.403187
-3.449011 0.000000 0.403187
-8.355014 0.000000 0.403187
-9.727242 0.000000 0.403187
1.808768 0.000000 0.403187
-3.438818 0.000000 0.403187
0.077937 0.000000 0.403187
1.271878 0.000000 0.403187
-1.274272 0.000000 0.403187
-0.104339 0.000000 0.403187
3.190078 0.000000 0.403187
-3.449011 0.000000 0.403187
-8.355014 0.000000 0.403187
-9.727242 0.000000 0.403187
1.808768 0.000000 0.403187
-3.438818 0.000000 0.403187
0.077937 0.000000 0.403187
1.271878 0.000000 0.403187
-1.274272 0.000000 0.403187
-0.104339 0.000000 0.403187
3.190078 0.000000 0.403187
-3.449011 0.000000 0.403187
-8.355014 0.000000 0.403187
-9.727242 0.000000 0.403187
1.808768 0.000000 0.403187
-3.438818 0.000000 0.403187
0.077937 0.000000 0.403187
1.271878 0.000000 0.403187
-1.274272 0.000000 0.403187
-0.104339 0.000000 0.403187
3.190078 0.000000 0.403187
-3.449011 0.000000 0.403187
-8.355014 0.000000 0.403187
-9.727242 0.000000 0.403187
1.808768 0.000000 0.403187
-3.438818 0.000000 0.403187
0.077937 0.000000 0.403187
1.271878 0.000000 0.403187
-1.274272 0.000000 0.403187
-0.104339 0.000000 0.403187
3.190078 0.000000 0.403187
-3.449011 0.000000 0.403187
-8.355014 0.000000 0.403187
-9.727242 0.000000 0.403187
1.808768 0.000000 0.403187
-3.438818 0.000000 0.403187
0.077937 0.000000 0.403187
1.271878 0.000000 0.403187
-1.274272 0.000000 0.403187
-0.104339 0.000000 0.403187
3.190078 0.000000 0.403187
-3.449011 0.000000 0.403187
-8.355014 0.000000 0.403187
-9.727242 0.000000 0.403187
1.808768 0.000000 0.403187
-3.438818 0.000000 0.403187
0.077937 0.000000 0.403187
1.271878 0.000000 0.403187
-1.274272 0.000000 0.403187
-0.104339 0.000000 0.403187
3.190078 0.000000 0.403187
-3.449011 0.000000 0.403187
-8.355014 0.000000 0.403187
-9.727242 0.000000 0.403187
