# vtk DataFile Version 4.0
hesp visualization file
ASCII
DATASET UNSTRUCTURED_GRID
POINTS 90 double
1.170913 1.000000 9.019529
2.193460 1.000000 9.019529
3.141597 1.000000 9.019529
4.038577 1.000000 9.019529
4.958501 1.000000 9.019529
5.843936 1.000000 9.019529
6.747991 1.000000 9.019529
7.665944 1.000000 9.019529
8.534921 1.000000 9.019529
9.442201 1.000000 9.019529
1.170913 2.000000 9.019529
2.193460 2.000000 9.019529
3.141597 2.000000 9.019529
4.038577 2.000000 9.019529
4.958501 2.000000 9.019529
5.843936 2.000000 9.019529
6.747991 2.000000 9.019529
7.665944 2.000000 9.019529
8.534921 2.000000 9.019529
9.442201 2.000000 9.019529
1.170913 3.000000 9.019529
2.193460 3.000000 9.019529
3.141597 3.000000 9.019529
4.038577 3.000000 9.019529
4.958501 3.000000 9.019529
5.843936 3.000000 9.019529
6.747991 3.000000 9.019529
7.665944 3.000000 9.019529
8.534921 3.000000 9.019529
9.442201 3.000000 9.019529
1.170913 4.000000 9.019529
2.193460 4.000000 9.019529
3.141597 4.000000 9.019529
4.038577 4.000000 9.019529
4.958501 4.000000 9.019529
5.843936 4.000000 9.019529
6.747991 4.000000 9.019529
7.665944 4.000000 9.019529
8.534921 4.000000 9.019529
9.442201 4.000000 9.019529
1.170913 5.000000 9.019529
2.193460 5.000000 9.019529
3.141597 5.000000 9.019529
4.038577 5.000000 9.019529
4.958501 5.000000 9.019529
5.843936 5.000000 9.019529
6.747991 5.000000 9.019529
7.665944 5.000000 9.019529
8.534921 5.000000 9.019529
9.442201 5.000000 9.019529
1.170913 6.000000 9.019529
2.193460 6.000000 9.019529
3.141597 6.000000 9.019529
4.038577 6.000000 9.019529
4.958501 6.000000 9.019529
5.843936 6.000000 9.019529
6.747991 6.000000 9.019529
7.665944 6.000000 9.019529
8.534921 6.000000 9.019529
9.442201 6.000000 9.019529
1.170913 7.000000 9.019529
2.193460 7.000000 9.019529
3.141597 7.000000 9.019529
4.038577 7.000000 9.019529
4.958501 7.000000 9.019529
5.843936 7.000000 9.019529
6.747991 7.000000 9.019529
7.665944 7.000000 9.019529
8.534921 7.000000 9.019529
9.442201 7.000000 9.019529
1.170913 8.000000 9.019529
2.193460 8.000000 9.019529
3.141597 8.000000 9.019529
4.038577 8.000000 9.019529
4.958501 8.000000 9.019529
5.843936 8.000000 9.019529
6.747991 8.000000 9.019529
7.665944 8.000000 9.019529
8.534921 8.000000 9.019529
9.442201 8.000000 9.019529
1.170913 9.000000 9.019529
2.193460 9.000000 9.019529
3.141597 9.000000 9.019529
4.038577 9.000000 9.019529
4.958501 9.000000 9.019529
5.843936 9.000000 9.019529
6.747991 9.000000 9.019529
7.665944 9.000000 9.019529
8.534921 9.000000 9.019529
9.442201 9.000000 9.019529
CELLS 0 0
CELL_TYPES 0
POINT_DATA 90
SCALARS m double
LOOKUP_TABLE default
1.000000
1.000000
1.000000
1.000000
1.000000
1.000000
1.000000
1.000000
1.000000
1.000000
1.000000
1.000000
1.000000
1.000000
1.000000
1.000000
1.000000
1.000000
1.000000
1.000000
1.000000
1.000000
1.000000
1.000000
1.000000
1.000000
1.000000
1.000000
1.000000
1.000000
1.000000
1.000000
1.000000
1.000000
1.000000
1.000000
1.000000
1.000000
1.000000
1.000000
1.000000
1.000000
1.000000
1.000000
1.000000
1.000000
1.000000
1.000000
1.000000
1.000000
1.000000
1.000000
1.000000
1.000000
1.000000
1.000000
1.000000
1.000000
1.000000
1.000000
1.000000
1.000000
1.000000
1.000000
1.000000
1.000000
1.000000
1.000000
1.000000
1.000000
1.000000
1.000000
1.000000
1.000000
1.000000
1.000000
1.000000
1.000000
1.000000
1.000000
1.000000
1.000000
1.000000
1.000000
1.000000
1.000000
1.000000
1.000000
1.000000
1.000000
VECTORS v double
-14.387302 0.000000 0.619002
-4.271051 0.000000 0.619002
-4.780705 0.000000 0.619002
1.344238 0.000000 0.619002
-1.958506 0.000000 0.619002
2.378346 0.000000 0.619002
-2.740224 0.000000 0.619002
1.348820 0.000000 0.619002
3.431880 0.000000 0.619002
-0.365534 0.000000 0.619002
-14.387302 0.000000 0.619002
-4.271051 0.000000 0.619002
-4.780705 0.000000 0.619002
1.344238 0.000000 0.619002
-1.958506 0.000000 0.619002
2.378346 0.000000 0.619002
-2.740224 0.000000 0.619002
1.348820 0.000000 0.619002
3.431880 0.000000 0.619002
-0.365534 0.000000 0.619002
-14.387302 0.000000 0.619002
-4.271051 0.000000 0.619002
-4.780705 0.000000 0.619002
1.344238 0.000000 0.619002
-1.958506 0.000000 0.619002
2.378346 0.000000 0.619002
-2.740224 0.000000 0.619002
1.348820 0.000000 0.619002
3.431880 0.000000 0.619002
-0.365534 0.000000 0.619002
-14.387302 0.000000 0.619002
-4.271051 0.000000 0.619002
-4.780705 0.000000 0.619002
1.344238 0.000000 0.619002
-1.958506 0.000000 0.619002
2.378346 0.000000 0.619002
-2.740224 0.000000 0.619002
1.348820 0.000000 0.619002
3.431880 0.000000 0.619002
-0.365534 0.000000 0.619002
-14.387302 0.000000 0.619002
-4.271051 0.000000 0.619002
-4.780705 0.000000 0.619002
1.344238 0.000000 0.619002
-1.958506 0.000000 0.619002
2.378346 0.000000 0.619002
-2.740224 0.000000 0.619002
1.348820 0.000000 0.619002
3.431880 0.000000 0.619002
-0.365534 0.000000 0.619002
-14.387302 0.000000 0.619002
-4.271051 0.000000 0.619002
-4.780705 0.000000 0.619002
1.344238 0.000000 0.619002
-1.958506 0.000000 0.619002
2.378346 0.000000 0.619002
-2.740224 0.000000 0.619002
1.348820 0.000000 0.619002
3.431880 0.000000 0.619002
-0.365534 0.000000 0.619002
-14.387302 0.000000 0.619002
-4.271051 0.000000 0.619002
-4.780705 0.000000 0.619002
1.344238 0.000000 0.619002
-1.958506 0.000000 0.619002
2.378346 0.000000 0.619002
-2.740224 0.000000 0.619002
1.348820 0.000000 0.619002
3.431880 0.000000 0.619002
-0.365534 0.000000 0.619002
-14.387302 0.000000 0.619002
-4.271051 0.000000 0.619002
-4.780705 0.000000 0.619002
1.344238 0.000000 0.619002
-1.958506 0.000000 0.619002
2.378346 0.000000 0.619002
-2.740224 0.000000 0.619002
1.348820 0.000000 0.619002
3.431880 0.000000 0.619002
-0.365534 0.000000 0.619002
-14.387302 0.000000 0.619002
-4.271051 0.000000 0.619002
-4.780705 0.000000 0.619002
1.344238 0.000000 0.619002
-1.958506 0.000000 0.619002
2.378346 0.000000 0.619002
-2.740224 0.000000 0.619002
1.348820 0.000000 0.619002
3.431880 0.000000 0.619002
-0.365534 0.000000 0.619002
