# vtk DataFile Version 4.0
hesp visualization file
ASCII
DATASET UNSTRUCTURED_GRID
POINTS 90 double
0.782454 1.000000 9.039818
1.932836 1.000000 9.039818
2.964882 1.000000 9.039818
3.931199 1.000000 9.039818
4.920745 1.000000 9.039818
5.829772 1.000000 9.039818
6.769126 1.000000 9.039818
7.687894 1.000000 9.039818
8.658527 1.000000 9.039818
9.720592 1.000000 9.039818
0.782454 2.000000 9.039818
1.932836 2.000000 9.039818
2.964882 2.000000 9.039818
3.931199 2.000000 9.039818
4.920745 2.000000 9.039818
5.829772 2.000000 9.039818
6.769126 2.000000 9.039818
7.687894 2.000000 9.039818
8.658527 2.000000 9.039818
9.720592 2.000000 9.039818
0.782454 3.000000 9.039818
1.932836 3.000000 9.039818
2.964882 3.000000 9.039818
3.931199 3.000000 9.039818
4.920745 3.000000 9.039818
5.829772 3.000000 9.039818
6.769126 3.000000 9.039818
7.687894 3.000000 9.039818
8.658527 3.000000 9.039818
9.720592 3.000000 9.039818
0.782454 4.000000 9.039818
1.932836 4.000000 9.039818
2.964882 4.000000 9.039818
3.931199 4.000000 9.039818
4.920745 4.000000 9.039818
5.829772 4.000000 9.039818
6.769126 4.000000 9.039818
7.687894 4.000000 9.039818
8.658527 4.000000 9.039818
9.720592 4.000000 9.039818
0.782454 5.000000 9.039818
1.932836 5.000000 9.039818
2.964882 5.000000 9.039818
3.931199 5.000000 9.039818
4.920745 5.000000 9.039818
5.829772 5.000000 9.039818
6.769126 5.000000 9.039818
7.687894 5.000000 9.039818
8.658527 5.000000 9.039818
9.720592 5.000000 9.039818
0.782454 6.000000 9.039818
1.932836 6.000000 9.039818
2.964882 6.000000 9.039818
3.931199 6.000000 9.039818
4.920745 6.000000 9.039818
5.829772 6.000000 9.039818
6.769126 6.000000 9.039818
7.687894 6.000000 9.039818
8.658527 6.000000 9.039818
9.720592 6.000000 9.039818
0.782454 7.000000 9.039818
1.932836 7.000000 9.039818
2.964882 7.000000 9.039818
3.931199 7.000000 9.039818
4.920745 7.000000 9.039818
5.829772 7.000000 9.039818
6.769126 7.000000 9.039818
7.687894 7.000000 9.039818
8.658527 7.000000 9.039818
9.720592 7.000000 9.039818
0.782454 8.000000 9.039818
1.932836 8.000000 9.039818
2.964882 8.000000 9.039818
3.931199 8.000000 9.039818
4.920745 8.000000 9.039818
5.829772 8.000000 9.039818
6.769126 8.000000 9.039818
7.687894 8.000000 9.039818
8.658527 8.000000 9.039818
9.720592 8.000000 9.039818
0.782454 9.000000 9.039818
1.932836 9.000000 9.039818
2.964882 9.000000 9.039818
3.931199 9.000000 9.039818
4.920745 9.000000 9.039818
5.829772 9.000000 9.039818
6.769126 9.000000 9.039818
7.687894 9.000000 9.039818
8.658527 9.000000 9.039818
9.720592 9.000000 9.039818
CELLS 0 0
CELL_TYPES 0
POINT_DATA 90
SCALARS m double
LOOKUP_TABLE default
1.000000
1.000000
1.000000
1.000000
1.000000
1.000000
1.000000
1.000000
1.000000
1.000000
1.000000
1.000000
1.000000
1.000000
1.000000
1.000000
1.000000
1.000000
1.000000
1.000000
1.000000
1.000000
1.000000
1.000000
1.000000
1.000000
1.000000
1.000000
1.000000
1.000000
1.000000
1.000000
1.000000
1.000000
1.000000
1.000000
1.000000
1.000000
1.000000
1.000000
1.000000
1.000000
1.000000
1.000000
1.000000
1.000000
1.000000
1.000000
1.000000
1.000000
1.000000
1.000000
1.000000
1.000000
1.000000
1.000000
1.000000
1.000000
1.000000
1.000000
1.000000
1.000000
1.000000
1.000000
1.000000
1.000000
1.000000
1.000000
1.000000
1.000000
1.000000
1.000000
1.000000
1.000000
1.000000
1.000000
1.000000
1.000000
1.000000
1.000000
1.000000
1.000000
1.000000
1.000000
1.000000
1.000000
1.000000
1.000000
1.000000
1.000000
VECTORS v double
-14.387302 0.000000 0.883864
-11.721501 0.000000 0.883864
-8.767217 0.000000 0.883864
-8.372303 0.000000 0.883864
-4.500252 0.000000 0.883864
-0.875653 0.000000 0.883864
-0.040231 0.000000 0.883864
7.369853 0.000000 0.883864
6.531473 0.000000 0.883864
14.763111 0.000000 0.883864
-14.387302 0.000000 0.883864
-11.721501 0.000000 0.883864
-8.767217 0.000000 0.883864
-8.372303 0.000000 0.883864
-4.500252 0.000000 0.883864
-0.875653 0.000000 0.883864
-0.040231 0.000000 0.883864
7.369853 0.000000 0.883864
6.531473 0.000000 0.883864
14.763111 0.000000 0.883864
-14.387302 0.000000 0.883864
-11.721501 0.000000 0.883864
-8.767217 0.000000 0.883864
-8.372303 0.000000 0.883864
-4.500252 0.000000 0.883864
-0.875653 0.000000 0.883864
-0.040231 0.000000 0.883864
7.369853 0.000000 0.883864
6.531473 0.000000 0.883864
14.763111 0.000000 0.883864
-14.387302 0.000000 0.883864
-11.721501 0.000000 0.883864
-8.767217 0.000000 0.883864
-8.372303 0.000000 0.883864
-4.500252 0.000000 0.883864
-0.875653 0.000000 0.883864
-0.040231 0.000000 0.883864
7.369853 0.000000 0.883864
6.531473 0.000000 0.883864
14.763111 0.000000 0.883864
-14.387302 0.000000 0.883864
-11.721501 0.000000 0.883864
-8.767217 0.000000 0.883864
-8.372303 0.000000 0.883864
-4.500252 0.000000 0.883864
-0.875653 0.000000 0.883864
-0.040231 0.000000 0.883864
7.369853 0.000000 0.883864
6.531473 0.000000 0.883864
14.763111 0.000000 0.883864
-14.387302 0.000000 0.883864
-11.721501 0.000000 0.883864
-8.767217 0.000000 0.883864
-8.372303 0.000000 0.883864
-4.500252 0.000000 0.883864
-0.875653 0.000000 0.883864
-0.040231 0.000000 0.883864
7.369853 0.000000 0.883864
6.531473 0.000000 0.883864
14.763111 0.000000 0.883864
-14.387302 0.000000 0.883864
-11.721501 0.000000 0.883864
-8.767217 0.000000 0.883864
-8.372303 0.000000 0.883864
-4.500252 0.000000 0.883864
-0.875653 0.000000 0.883864
-0.040231 0.000000 0.883864
7.369853 0.000000 0.883864
6.531473 0.000000 0.883864
14.763111 0.000000 0.883864
-14.387302 0.000000 0.883864
-11.721501 0.000000 0.883864
-8.767217 0.000000 0.883864
-8.372303 0.000000 0.883864
-4.500252 0.000000 0.883864
-0.875653 0.000000 0.883864
-0.040231 0.000000 0.883864
7.369853 0.000000 0.883864
6.531473 0.000000 0.883864
14.763111 0.000000 0.883864
-14.387302 0.000000 0.883864
-11.721501 0.000000 0.883864
-8.767217 0.000000 0.883864
-8.372303 0.000000 0.883864
-4.500252 0.000000 0.883864
-0.875653 0.000000 0.883864
-0.040231 0.000000 0.883864
7.369853 0.000000 0.883864
6.531473 0.000000 0.883864
14.763111 0.000000 0.883864
