# vtk DataFile Version 4.0
hesp visualization file
ASCII
DATASET UNSTRUCTURED_GRID
POINTS 90 double
1.051002 1.000000 9.000127
2.050996 1.000000 9.000127
3.050953 1.000000 9.000127
4.046974 1.000000 9.000127
4.953026 1.000000 9.000127
5.949047 1.000000 9.000127
6.949004 1.000000 9.000127
7.949004 1.000000 9.000127
8.948979 1.000000 9.000127
9.948979 1.000000 9.000127
1.051002 2.000000 9.000127
2.050996 2.000000 9.000127
3.050953 2.000000 9.000127
4.046974 2.000000 9.000127
4.953026 2.000000 9.000127
5.949047 2.000000 9.000127
6.949004 2.000000 9.000127
7.949004 2.000000 9.000127
8.948979 2.000000 9.000127
9.948979 2.000000 9.000127
1.051002 3.000000 9.000127
2.050996 3.000000 9.000127
3.050953 3.000000 9.000127
4.046974 3.000000 9.000127
4.953026 3.000000 9.000127
5.949047 3.000000 9.000127
6.949004 3.000000 9.000127
7.949004 3.000000 9.000127
8.948979 3.000000 9.000127
9.948979 3.000000 9.000127
1.051002 4.000000 9.000127
2.050996 4.000000 9.000127
3.050953 4.000000 9.000127
4.046974 4.000000 9.000127
4.953026 4.000000 9.000127
5.949047 4.000000 9.000127
6.949004 4.000000 9.000127
7.949004 4.000000 9.000127
8.948979 4.000000 9.000127
9.948979 4.000000 9.000127
1.051002 5.000000 9.000127
2.050996 5.000000 9.000127
3.050953 5.000000 9.000127
4.046974 5.000000 9.000127
4.953026 5.000000 9.000127
5.949047 5.000000 9.000127
6.949004 5.000000 9.000127
7.949004 5.000000 9.000127
8.948979 5.000000 9.000127
9.948979 5.000000 9.000127
1.051002 6.000000 9.000127
2.050996 6.000000 9.000127
3.050953 6.000000 9.000127
4.046974 6.000000 9.000127
4.953026 6.000000 9.000127
5.949047 6.000000 9.000127
6.949004 6.000000 9.000127
7.949004 6.000000 9.000127
8.948979 6.000000 9.000127
9.948979 6.000000 9.000127
1.051002 7.000000 9.000127
2.050996 7.000000 9.000127
3.050953 7.000000 9.000127
4.046974 7.000000 9.000127
4.953026 7.000000 9.000127
5.949047 7.000000 9.000127
6.949004 7.000000 9.000127
7.949004 7.000000 9.000127
8.948979 7.000000 9.000127
9.948979 7.000000 9.000127
1.051002 8.000000 9.000127
2.050996 8.000000 9.000127
3.050953 8.000000 9.000127
4.046974 8.000000 9.000127
4.953026 8.000000 9.000127
5.949047 8.000000 9.000127
6.949004 8.000000 9.000127
7.949004 8.000000 9.000127
8.948979 8.000000 9.000127
9.948979 8.000000 9.000127
1.051002 9.000000 9.000127
2.050996 9.000000 9.000127
3.050953 9.000000 9.000127
4.046974 9.000000 9.000127
4.953026 9.000000 9.000127
5.949047 9.000000 9.000127
6.949004 9.000000 9.000127
7.949004 9.000000 9.000127
8.948979 9.000000 9.000127
9.948979 9.000000 9.000127
CELLS 0 0
CELL_TYPES 0
POINT_DATA 90
SCALARS m double
LOOKUP_TABLE default
1.000000
1.000000
1.000000
1.000000
1.000000
1.000000
1.000000
1.000000
1.000000
1.000000
1.000000
1.000000
1.000000
1.000000
1.000000
1.000000
1.000000
1.000000
1.000000
1.000000
1.000000
1.000000
1.000000
1.000000
1.000000
1.000000
1.000000
1.000000
1.000000
1.000000
1.000000
1.000000
1.000000
1.000000
1.000000
1.000000
1.000000
1.000000
1.000000
1.000000
1.000000
1.000000
1.000000
1.000000
1.000000
1.000000
1.000000
1.000000
1.000000
1.000000
1.000000
1.000000
1.000000
1.000000
1.000000
1.000000
1.000000
1.000000
1.000000
1.000000
1.000000
1.000000
1.000000
1.000000
1.000000
1.000000
1.000000
1.000000
1.000000
1.000000
1.000000
1.000000
1.000000
1.000000
1.000000
1.000000
1.000000
1.000000
1.000000
1.000000
1.000000
1.000000
1.000000
1.000000
1.000000
1.000000
1.000000
1.000000
1.000000
1.000000
VECTORS v double
9.999845 0.000000 0.050031
9.999861 0.000000 0.050031
9.953647 0.000000 0.050031
7.640684 0.000000 0.050031
-7.640697 0.000000 0.050031
-9.953633 0.000000 0.050031
-9.999718 0.000000 0.050031
-10.000630 0.000000 0.050031
-9.999370 0.000000 0.050031
-10.000000 0.000000 0.050031
9.999845 0.000000 0.050031
9.999861 0.000000 0.050031
9.953647 0.000000 0.050031
7.640684 0.000000 0.050031
-7.640697 0.000000 0.050031
-9.953633 0.000000 0.050031
-9.999718 0.000000 0.050031
-10.000630 0.000000 0.050031
-9.999370 0.000000 0.050031
-10.000000 0.000000 0.050031
9.999845 0.000000 0.050031
9.999861 0.000000 0.050031
9.953647 0.000000 0.050031
7.640684 0.000000 0.050031
-7.640697 0.000000 0.050031
-9.953633 0.000000 0.050031
-9.999718 0.000000 0.050031
-10.000630 0.000000 0.050031
-9.999370 0.000000 0.050031
-10.000000 0.000000 0.050031
9.999845 0.000000 0.050031
9.999861 0.000000 0.050031
9.953647 0.000000 0.050031
7.640684 0.000000 0.050031
-7.640697 0.000000 0.050031
-9.953633 0.000000 0.050031
-9.999718 0.000000 0.050031
-10.000630 0.000000 0.050031
-9.999370 0.000000 0.050031
-10.000000 0.000000 0.050031
9.999845 0.000000 0.050031
9.999861 0.000000 0.050031
9.953647 0.000000 0.050031
7.640684 0.000000 0.050031
-7.640697 0.000000 0.050031
-9.953633 0.000000 0.050031
-9.999718 0.000000 0.050031
-10.000630 0.000000 0.050031
-9.999370 0.000000 0.050031
-10.000000 0.000000 0.050031
9.999845 0.000000 0.050031
9.999861 0.000000 0.050031
9.953647 0.000000 0.050031
7.640684 0.000000 0.050031
-7.640697 0.000000 0.050031
-9.953633 0.000000 0.050031
-9.999718 0.000000 0.050031
-10.000630 0.000000 0.050031
-9.999370 0.000000 0.050031
-10.000000 0.000000 0.050031
9.999845 0.000000 0.050031
9.999861 0.000000 0.050031
9.953647 0.000000 0.050031
7.640684 0.000000 0.050031
-7.640697 0.000000 0.050031
-9.953633 0.000000 0.050031
-9.999718 0.000000 0.050031
-10.000630 0.000000 0.050031
-9.999370 0.000000 0.050031
-10.000000 0.000000 0.050031
9.999845 0.000000 0.050031
9.999861 0.000000 0.050031
9.953647 0.000000 0.050031
7.640684 0.000000 0.050031
-7.640697 0.000000 0.050031
-9.953633 0.000000 0.050031
-9.999718 0.000000 0.050031
-10.000630 0.000000 0.050031
-9.999370 0.000000 0.050031
-10.000000 0.000000 0.050031
9.999845 0.000000 0.050031
9.999861 0.000000 0.050031
9.953647 0.000000 0.050031
7.640684 0.000000 0.050031
-7.640697 0.000000 0.050031
-9.953633 0.000000 0.050031
-9.999718 0.000000 0.050031
-10.000630 0.000000 0.050031
-9.999370 0.000000 0.050031
-10.000000 0.000000 0.050031
