# vtk DataFile Version 4.0
hesp visualization file
ASCII
DATASET UNSTRUCTURED_GRID
POINTS 90 double
0.698714 1.000000 9.045298
1.862505 1.000000 9.045298
2.906643 1.000000 9.045298
3.885519 1.000000 9.045298
4.880216 1.000000 9.045298
5.828304 1.000000 9.045298
6.767893 1.000000 9.045298
7.738296 1.000000 9.045298
8.703349 1.000000 9.045298
9.806588 1.000000 9.045298
0.698714 2.000000 9.045298
1.862505 2.000000 9.045298
2.906643 2.000000 9.045298
3.885519 2.000000 9.045298
4.880216 2.000000 9.045298
5.828304 2.000000 9.045298
6.767893 2.000000 9.045298
7.738296 2.000000 9.045298
8.703349 2.000000 9.045298
9.806588 2.000000 9.045298
0.698714 3.000000 9.045298
1.862505 3.000000 9.045298
2.906643 3.000000 9.045298
3.885519 3.000000 9.045298
4.880216 3.000000 9.045298
5.828304 3.000000 9.045298
6.767893 3.000000 9.045298
7.738296 3.000000 9.045298
8.703349 3.000000 9.045298
9.806588 3.000000 9.045298
0.698714 4.000000 9.045298
1.862505 4.000000 9.045298
2.906643 4.000000 9.045298
3.885519 4.000000 9.045298
4.880216 4.000000 9.045298
5.828304 4.000000 9.045298
6.767893 4.000000 9.045298
7.738296 4.000000 9.045298
8.703349 4.000000 9.045298
9.806588 4.000000 9.045298
0.698714 5.000000 9.045298
1.862505 5.000000 9.045298
2.906643 5.000000 9.045298
3.885519 5.000000 9.045298
4.880216 5.000000 9.045298
5.828304 5.000000 9.045298
6.767893 5.000000 9.045298
7.738296 5.000000 9.045298
8.703349 5.000000 9.045298
9.806588 5.000000 9.045298
0.698714 6.000000 9.045298
1.862505 6.000000 9.045298
2.906643 6.000000 9.045298
3.885519 6.000000 9.045298
4.880216 6.000000 9.045298
5.828304 6.000000 9.045298
6.767893 6.000000 9.045298
7.738296 6.000000 9.045298
8.703349 6.000000 9.045298
9.806588 6.000000 9.045298
0.698714 7.000000 9.045298
1.862505 7.000000 9.045298
2.906643 7.000000 9.045298
3.885519 7.000000 9.045298
4.880216 7.000000 9.045298
5.828304 7.000000 9.045298
6.767893 7.000000 9.045298
7.738296 7.000000 9.045298
8.703349 7.000000 9.045298
9.806588 7.000000 9.045298
0.698714 8.000000 9.045298
1.862505 8.000000 9.045298
2.906643 8.000000 9.045298
3.885519 8.000000 9.045298
4.880216 8.000000 9.045298
5.828304 8.000000 9.045298
6.767893 8.000000 9.045298
7.738296 8.000000 9.045298
8.703349 8.000000 9.045298
9.806588 8.000000 9.045298
0.698714 9.000000 9.045298
1.862505 9.000000 9.045298
2.906643 9.000000 9.045298
3.885519 9.000000 9.045298
4.880216 9.000000 9.045298
5.828304 9.000000 9.045298
6.767893 9.000000 9.045298
7.738296 9.000000 9.045298
8.703349 9.000000 9.045298
9.806588 9.000000 9.045298
CELLS 0 0
CELL_TYPES 0
POINT_DATA 90
SCALARS m double
LOOKUP_TABLE default
1.000000
1.000000
1.000000
1.000000
1.000000
1.000000
1.000000
1.000000
1.000000
1.000000
1.000000
1.000000
1.000000
1.000000
1.000000
1.000000
1.000000
1.000000
1.000000
1.000000
1.000000
1.000000
1.000000
1.000000
1.000000
1.000000
1.000000
1.000000
1.000000
1.000000
1.000000
1.000000
1.000000
1.000000
1.000000
1.000000
1.000000
1.000000
1.000000
1.000000
1.000000
1.000000
1.000000
1.000000
1.000000
1.000000
1.000000
1.000000
1.000000
1.000000
1.000000
1.000000
1.000000
1.000000
1.000000
1.000000
1.000000
1.000000
1.000000
1.000000
1.000000
1.000000
1.000000
1.000000
1.000000
1.000000
1.000000
1.000000
1.000000
1.000000
1.000000
1.000000
1.000000
1.000000
1.000000
1.000000
1.000000
1.000000
1.000000
1.000000
1.000000
1.000000
1.000000
1.000000
1.000000
1.000000
1.000000
1.000000
1.000000
1.000000
VECTORS v double
-12.351554 0.000000 0.942723
-11.721501 0.000000 0.942723
-10.522208 0.000000 0.942723
-6.923098 0.000000 0.942723
-8.674219 0.000000 0.942723
-0.006101 0.000000 0.942723
0.154443 0.000000 0.942723
8.847882 0.000000 0.942723
8.468988 0.000000 0.942723
12.727363 0.000000 0.942723
-12.351554 0.000000 0.942723
-11.721501 0.000000 0.942723
-10.522208 0.000000 0.942723
-6.923098 0.000000 0.942723
-8.674219 0.000000 0.942723
-0.006101 0.000000 0.942723
0.154443 0.000000 0.942723
8.847882 0.000000 0.942723
8.468988 0.000000 0.942723
12.727363 0.000000 0.942723
-12.351554 0.000000 0.942723
-11.721501 0.000000 0.942723
-10.522208 0.000000 0.942723
-6.923098 0.000000 0.942723
-8.674219 0.000000 0.942723
-0.006101 0.000000 0.942723
0.154443 0.000000 0.942723
8.847882 0.000000 0.942723
8.468988 0.000000 0.942723
12.727363 0.000000 0.942723
-12.351554 0.000000 0.942723
-11.721501 0.000000 0.942723
-10.522208 0.000000 0.942723
-6.923098 0.000000 0.942723
-8.674219 0.000000 0.942723
-0.006101 0.000000 0.942723
0.154443 0.000000 0.942723
8.847882 0.000000 0.942723
8.468988 0.000000 0.942723
12.727363 0.000000 0.942723
-12.351554 0.000000 0.942723
-11.721501 0.000000 0.942723
-10.522208 0.000000 0.942723
-6.923098 0.000000 0.942723
-8.674219 0.000000 0.942723
-0.006101 0.000000 0.942723
0.154443 0.000000 0.942723
8.847882 0.000000 0.942723
8.468988 0.000000 0.942723
12.727363 0.000000 0.942723
-12.351554 0.000000 0.942723
-11.721501 0.000000 0.942723
-10.522208 0.000000 0.942723
-6.923098 0.000000 0.942723
-8.674219 0.000000 0.942723
-0.006101 0.000000 0.942723
0.154443 0.000000 0.942723
8.847882 0.000000 0.942723
8.468988 0.000000 0.942723
12.727363 0.000000 0.942723
-12.351554 0.000000 0.942723
-11.721501 0.000000 0.942723
-10.522208 0.000000 0.942723
-6.923098 0.000000 0.942723
-8.674219 0.000000 0.942723
-0.006101 0.000000 0.942723
0.154443 0.000000 0.942723
8.847882 0.000000 0.942723
8.468988 0.000000 0.942723
12.727363 0.000000 0.942723
-12.351554 0.000000 0.942723
-11.721501 0.000000 0.942723
-10.522208 0.000000 0.942723
-6.923098 0.000000 0.942723
-8.674219 0.000000 0.942723
-0.006101 0.000000 0.942723
0.154443 0.000000 0.942723
8.847882 0.000000 0.942723
8.468988 0.000000 0.942723
12.727363 0.000000 0.942723
-12.351554 0.000000 0.942723
-11.721501 0.000000 0.942723
-10.522208 0.000000 0.942723
-6.923098 0.000000 0.942723
-8.674219 0.000000 0.942723
-0.006101 0.000000 0.942723
0.154443 0.000000 0.942723
8.847882 0.000000 0.942723
8.468988 0.000000 0.942723
12.727363 0.000000 0.942723
