# vtk DataFile Version 4.0
hesp visualization file
ASCII
DATASET UNSTRUCTURED_GRID
POINTS 90 double
1.352096 1.000000 9.010880
2.239842 1.000000 9.010880
3.142729 1.000000 9.010880
4.060567 1.000000 9.010880
4.939384 1.000000 9.010880
5.856791 1.000000 9.010880
6.756157 1.000000 9.010880
7.623901 1.000000 9.010880
8.553100 1.000000 9.010880
9.533479 1.000000 9.010880
1.352096 2.000000 9.010880
2.239842 2.000000 9.010880
3.142729 2.000000 9.010880
4.060567 2.000000 9.010880
4.939384 2.000000 9.010880
5.856791 2.000000 9.010880
6.756157 2.000000 9.010880
7.623901 2.000000 9.010880
8.553100 2.000000 9.010880
9.533479 2.000000 9.010880
1.352096 3.000000 9.010880
2.239842 3.000000 9.010880
3.142729 3.000000 9.010880
4.060567 3.000000 9.010880
4.939384 3.000000 9.010880
5.856791 3.000000 9.010880
6.756157 3.000000 9.010880
7.623901 3.000000 9.010880
8.553100 3.000000 9.010880
9.533479 3.000000 9.010880
1.352096 4.000000 9.010880
2.239842 4.000000 9.010880
3.142729 4.000000 9.010880
4.060567 4.000000 9.010880
4.939384 4.000000 9.010880
5.856791 4.000000 9.010880
6.756157 4.000000 9.010880
7.623901 4.000000 9.010880
8.553100 4.000000 9.010880
9.533479 4.000000 9.010880
1.352096 5.000000 9.010880
2.239842 5.000000 9.010880
3.142729 5.000000 9.010880
4.060567 5.000000 9.010880
4.939384 5.000000 9.010880
5.856791 5.000000 9.010880
6.756157 5.000000 9.010880
7.623901 5.000000 9.010880
8.553100 5.000000 9.010880
9.533479 5.000000 9.010880
1.352096 6.000000 9.010880
2.239842 6.000000 9.010880
3.142729 6.000000 9.010880
4.060567 6.000000 9.010880
4.939384 6.000000 9.010880
5.856791 6.000000 9.010880
6.756157 6.000000 9.010880
7.623901 6.000000 9.010880
8.553100 6.000000 9.010880
9.533479 6.000000 9.010880
1.352096 7.000000 9.010880
2.239842 7.000000 9.010880
3.142729 7.000000 9.010880
4.060567 7.000000 9.010880
4.939384 7.000000 9.010880
5.856791 7.000000 9.010880
6.756157 7.000000 9.010880
7.623901 7.000000 9.010880
8.553100 7.000000 9.010880
9.533479 7.000000 9.010880
1.352096 8.000000 9.010880
2.239842 8.000000 9.010880
3.142729 8.000000 9.010880
4.060567 8.000000 9.010880
4.939384 8.000000 9.010880
5.856791 8.000000 9.010880
6.756157 8.000000 9.010880
7.623901 8.000000 9.010880
8.553100 8.000000 9.010880
9.533479 8.000000 9.010880
1.352096 9.000000 9.010880
2.239842 9.000000 9.010880
3.142729 9.000000 9.010880
4.060567 9.000000 9.010880
4.939384 9.000000 9.010880
5.856791 9.000000 9.010880
6.756157 9.000000 9.010880
7.623901 9.000000 9.010880
8.553100 9.000000 9.010880
9.533479 9.000000 9.010880
CELLS 0 0
CELL_TYPES 0
POINT_DATA 90
SCALARS m double
LOOKUP_TABLE default
1.000000
1.000000
1.000000
1.000000
1.000000
1.000000
1.000000
1.000000
1.000000
1.000000
1.000000
1.000000
1.000000
1.000000
1.000000
1.000000
1.000000
1.000000
1.000000
1.000000
1.000000
1.000000
1.000000
1.000000
1.000000
1.000000
1.000000
1.000000
1.000000
1.000000
1.000000
1.000000
1.000000
1.000000
1.000000
1.000000
1.000000
1.000000
1.000000
1.000000
1.000000
1.000000
1.000000
1.000000
1.000000
1.000000
1.000000
1.000000
1.000000
1.000000
1.000000
1.000000
1.000000
1.000000
1.000000
1.000000
1.000000
1.000000
1.000000
1.000000
1.000000
1.000000
1.000000
1.000000
1.000000
1.000000
1.000000
1.000000
1.000000
1.000000
1.000000
1.000000
1.000000
1.000000
1.000000
1.000000
1.000000
1.000000
1.000000
1.000000
1.000000
1.000000
1.000000
1.000000
1.000000
1.000000
1.000000
1.000000
1.000000
1.000000
VECTORS v double
-4.613442 0.000000 0.462046
-3.971260 0.000000 0.462046
2.661943 0.000000 0.462046
-1.992316 0.000000 0.462046
1.977663 0.000000 0.462046
-2.789219 0.000000 0.462046
3.096767 0.000000 0.462046
0.611560 0.000000 0.462046
-5.983893 0.000000 0.462046
-8.997839 0.000000 0.462046
-4.613442 0.000000 0.462046
-3.971260 0.000000 0.462046
2.661943 0.000000 0.462046
-1.992316 0.000000 0.462046
1.977663 0.000000 0.462046
-2.789219 0.000000 0.462046
3.096767 0.000000 0.462046
0.611560 0.000000 0.462046
-5.983893 0.000000 0.462046
-8.997839 0.000000 0.462046
-4.613442 0.000000 0.462046
-3.971260 0.000000 0.462046
2.661943 0.000000 0.462046
-1.992316 0.000000 0.462046
1.977663 0.000000 0.462046
-2.789219 0.000000 0.462046
3.096767 0.000000 0.462046
0.611560 0.000000 0.462046
-5.983893 0.000000 0.462046
-8.997839 0.000000 0.462046
-4.613442 0.000000 0.462046
-3.971260 0.000000 0.462046
2.661943 0.000000 0.462046
-1.992316 0.000000 0.462046
1.977663 0.000000 0.462046
-2.789219 0.000000 0.462046
3.096767 0.000000 0.462046
0.611560 0.000000 0.462046
-5.983893 0.000000 0.462046
-8.997839 0.000000 0.462046
-4.613442 0.000000 0.462046
-3.971260 0.000000 0.462046
2.661943 0.000000 0.462046
-1.992316 0.000000 0.462046
1.977663 0.000000 0.462046
-2.789219 0.000000 0.462046
3.096767 0.000000 0.462046
0.611560 0.000000 0.462046
-5.983893 0.000000 0.462046
-8.997839 0.000000 0.462046
-4.613442 0.000000 0.462046
-3.971260 0.000000 0.462046
2.661943 0.000000 0.462046
-1.992316 0.000000 0.462046
1.977663 0.000000 0.462046
-2.789219 0.000000 0.462046
3.096767 0.000000 0.462046
0.611560 0.000000 0.462046
-5.983893 0.000000 0.462046
-8.997839 0.000000 0.462046
-4.613442 0.000000 0.462046
-3.971260 0.000000 0.462046
2.661943 0.000000 0.462046
-1.992316 0.000000 0.462046
1.977663 0.000000 0.462046
-2.789219 0.000000 0.462046
3.096767 0.000000 0.462046
0.611560 0.000000 0.462046
-5.983893 0.000000 0.462046
-8.997839 0.000000 0.462046
-4.613442 0.000000 0.462046
-3.971260 0.000000 0.462046
2.661943 0.000000 0.462046
-1.992316 0.000000 0.462046
1.977663 0.000000 0.462046
-2.789219 0.000000 0.462046
3.096767 0.000000 0.462046
0.611560 0.000000 0.462046
-5.983893 0.000000 0.462046
-8.997839 0.000000 0.462046
-4.613442 0.000000 0.462046
-3.971260 0.000000 0.462046
2.661943 0.000000 0.462046
-1.992316 0.000000 0.462046
1.977663 0.000000 0.462046
-2.789219 0.000000 0.462046
3.096767 0.000000 0.462046
0.611560 0.000000 0.462046
-5.983893 0.000000 0.462046
-8.997839 0.000000 0.462046
