# vtk DataFile Version 4.0
hesp visualization file
ASCII
DATASET UNSTRUCTURED_GRID
POINTS 90 double
1.001000 1.000000 9.000000
2.001000 1.000000 9.000000
3.001000 1.000000 9.000000
4.001000 1.000000 9.000000
4.999000 1.000000 9.000000
5.999000 1.000000 9.000000
6.999000 1.000000 9.000000
7.999000 1.000000 9.000000
8.999000 1.000000 9.000000
9.999000 1.000000 9.000000
1.001000 2.000000 9.000000
2.001000 2.000000 9.000000
3.001000 2.000000 9.000000
4.001000 2.000000 9.000000
4.999000 2.000000 9.000000
5.999000 2.000000 9.000000
6.999000 2.000000 9.000000
7.999000 2.000000 9.000000
8.999000 2.000000 9.000000
9.999000 2.000000 9.000000
1.001000 3.000000 9.000000
2.001000 3.000000 9.000000
3.001000 3.000000 9.000000
4.001000 3.000000 9.000000
4.999000 3.000000 9.000000
5.999000 3.000000 9.000000
6.999000 3.000000 9.000000
7.999000 3.000000 9.000000
8.999000 3.000000 9.000000
9.999000 3.000000 9.000000
1.001000 4.000000 9.000000
2.001000 4.000000 9.000000
3.001000 4.000000 9.000000
4.001000 4.000000 9.000000
4.999000 4.000000 9.000000
5.999000 4.000000 9.000000
6.999000 4.000000 9.000000
7.999000 4.000000 9.000000
8.999000 4.000000 9.000000
9.999000 4.000000 9.000000
1.001000 5.000000 9.000000
2.001000 5.000000 9.000000
3.001000 5.000000 9.000000
4.001000 5.000000 9.000000
4.999000 5.000000 9.000000
5.999000 5.000000 9.000000
6.999000 5.000000 9.000000
7.999000 5.000000 9.000000
8.999000 5.000000 9.000000
9.999000 5.000000 9.000000
1.001000 6.000000 9.000000
2.001000 6.000000 9.000000
3.001000 6.000000 9.000000
4.001000 6.000000 9.000000
4.999000 6.000000 9.000000
5.999000 6.000000 9.000000
6.999000 6.000000 9.000000
7.999000 6.000000 9.000000
8.999000 6.000000 9.000000
9.999000 6.000000 9.000000
1.001000 7.000000 9.000000
2.001000 7.000000 9.000000
3.001000 7.000000 9.000000
4.001000 7.000000 9.000000
4.999000 7.000000 9.000000
5.999000 7.000000 9.000000
6.999000 7.000000 9.000000
7.999000 7.000000 9.000000
8.999000 7.000000 9.000000
9.999000 7.000000 9.000000
1.001000 8.000000 9.000000
2.001000 8.000000 9.000000
3.001000 8.000000 9.000000
4.001000 8.000000 9.000000
4.999000 8.000000 9.000000
5.999000 8.000000 9.000000
6.999000 8.000000 9.000000
7.999000 8.000000 9.000000
8.999000 8.000000 9.000000
9.999000 8.000000 9.000000
1.001000 9.000000 9.000000
2.001000 9.000000 9.000000
3.001000 9.000000 9.000000
4.001000 9.000000 9.000000
4.999000 9.000000 9.000000
5.999000 9.000000 9.000000
6.999000 9.000000 9.000000
7.999000 9.000000 9.000000
8.999000 9.000000 9.000000
9.999000 9.000000 9.000000
CELLS 0 0
CELL_TYPES 0
POINT_DATA 90
SCALARS m double
LOOKUP_TABLE default
1.000000
1.000000
1.000000
1.000000
1.000000
1.000000
1.000000
1.000000
1.000000
1.000000
1.000000
1.000000
1.000000
1.000000
1.000000
1.000000
1.000000
1.000000
1.000000
1.000000
1.000000
1.000000
1.000000
1.000000
1.000000
1.000000
1.000000
1.000000
1.000000
1.000000
1.000000
1.000000
1.000000
1.000000
1.000000
1.000000
1.000000
1.000000
1.000000
1.000000
1.000000
1.000000
1.000000
1.000000
1.000000
1.000000
1.000000
1.000000
1.000000
1.000000
1.000000
1.000000
1.000000
1.000000
1.000000
1.000000
1.000000
1.000000
1.000000
1.000000
1.000000
1.000000
1.000000
1.000000
1.000000
1.000000
1.000000
1.000000
1.000000
1.000000
1.000000
1.000000
1.000000
1.000000
1.000000
1.000000
1.000000
1.000000
1.000000
1.000000
1.000000
1.000000
1.000000
1.000000
1.000000
1.000000
1.000000
1.000000
1.000000
1.000000
VECTORS v double
10.000000 0.000000 0.000981
10.000000 0.000000 0.000981
10.000000 0.000000 0.000981
10.000000 0.000000 0.000981
-10.000000 0.000000 0.000981
-10.000000 0.000000 0.000981
-10.000000 0.000000 0.000981
-10.000000 0.000000 0.000981
-10.000000 0.000000 0.000981
-10.000000 0.000000 0.000981
10.000000 0.000000 0.000981
10.000000 0.000000 0.000981
10.000000 0.000000 0.000981
10.000000 0.000000 0.000981
-10.000000 0.000000 0.000981
-10.000000 0.000000 0.000981
-10.000000 0.000000 0.000981
-10.000000 0.000000 0.000981
-10.000000 0.000000 0.000981
-10.000000 0.000000 0.000981
10.000000 0.000000 0.000981
10.000000 0.000000 0.000981
10.000000 0.000000 0.000981
10.000000 0.000000 0.000981
-10.000000 0.000000 0.000981
-10.000000 0.000000 0.000981
-10.000000 0.000000 0.000981
-10.000000 0.000000 0.000981
-10.000000 0.000000 0.000981
-10.000000 0.000000 0.000981
10.000000 0.000000 0.000981
10.000000 0.000000 0.000981
10.000000 0.000000 0.000981
10.000000 0.000000 0.000981
-10.000000 0.000000 0.000981
-10.000000 0.000000 0.000981
-10.000000 0.000000 0.000981
-10.000000 0.000000 0.000981
-10.000000 0.000000 0.000981
-10.000000 0.000000 0.000981
10.000000 0.000000 0.000981
10.000000 0.000000 0.000981
10.000000 0.000000 0.000981
10.000000 0.000000 0.000981
-10.000000 0.000000 0.000981
-10.000000 0.000000 0.000981
-10.000000 0.000000 0.000981
-10.000000 0.000000 0.000981
-10.000000 0.000000 0.000981
-10.000000 0.000000 0.000981
10.000000 0.000000 0.000981
10.000000 0.000000 0.000981
10.000000 0.000000 0.000981
10.000000 0.000000 0.000981
-10.000000 0.000000 0.000981
-10.000000 0.000000 0.000981
-10.000000 0.000000 0.000981
-10.000000 0.000000 0.000981
-10.000000 0.000000 0.000981
-10.000000 0.000000 0.000981
10.000000 0.000000 0.000981
10.000000 0.000000 0.000981
10.000000 0.000000 0.000981
10.000000 0.000000 0.000981
-10.000000 0.000000 0.000981
-10.000000 0.000000 0.000981
-10.000000 0.000000 0.000981
-10.000000 0.000000 0.000981
-10.000000 0.000000 0.000981
-10.000000 0.000000 0.000981
10.000000 0.000000 0.000981
10.000000 0.000000 0.000981
10.000000 0.000000 0.000981
10.000000 0.000000 0.000981
-10.000000 0.000000 0.000981
-10.000000 0.000000 0.000981
-10.000000 0.000000 0.000981
-10.000000 0.000000 0.000981
-10.000000 0.000000 0.000981
-10.000000 0.000000 0.000981
10.000000 0.000000 0.000981
10.000000 0.000000 0.000981
10.000000 0.000000 0.000981
10.000000 0.000000 0.000981
-10.000000 0.000000 0.000981
-10.000000 0.000000 0.000981
-10.000000 0.000000 0.000981
-10.000000 0.000000 0.000981
-10.000000 0.000000 0.000981
-10.000000 0.000000 0.000981
