# vtk DataFile Version 4.0
hesp visualization file
ASCII
DATASET UNSTRUCTURED_GRID
POINTS 90 double
0.711550 1.000000 9.044360
1.874227 1.000000 9.044360
2.917053 1.000000 9.044360
3.892532 1.000000 9.044360
4.888636 1.000000 9.044360
5.828286 1.000000 9.044360
6.767875 1.000000 9.044360
7.729441 1.000000 9.044360
8.695053 1.000000 9.044360
9.793376 1.000000 9.044360
0.711550 2.000000 9.044360
1.874227 2.000000 9.044360
2.917053 2.000000 9.044360
3.892532 2.000000 9.044360
4.888636 2.000000 9.044360
5.828286 2.000000 9.044360
6.767875 2.000000 9.044360
7.729441 2.000000 9.044360
8.695053 2.000000 9.044360
9.793376 2.000000 9.044360
0.711550 3.000000 9.044360
1.874227 3.000000 9.044360
2.917053 3.000000 9.044360
3.892532 3.000000 9.044360
4.888636 3.000000 9.044360
5.828286 3.000000 9.044360
6.767875 3.000000 9.044360
7.729441 3.000000 9.044360
8.695053 3.000000 9.044360
9.793376 3.000000 9.044360
0.711550 4.000000 9.044360
1.874227 4.000000 9.044360
2.917053 4.000000 9.044360
3.892532 4.000000 9.044360
4.888636 4.000000 9.044360
5.828286 4.000000 9.044360
6.767875 4.000000 9.044360
7.729441 4.000000 9.044360
8.695053 4.000000 9.044360
9.793376 4.000000 9.044360
0.711550 5.000000 9.044360
1.874227 5.000000 9.044360
2.917053 5.000000 9.044360
3.892532 5.000000 9.044360
4.888636 5.000000 9.044360
5.828286 5.000000 9.044360
6.767875 5.000000 9.044360
7.729441 5.000000 9.044360
8.695053 5.000000 9.044360
9.793376 5.000000 9.044360
0.711550 6.000000 9.044360
1.874227 6.000000 9.044360
2.917053 6.000000 9.044360
3.892532 6.000000 9.044360
4.888636 6.000000 9.044360
5.828286 6.000000 9.044360
6.767875 6.000000 9.044360
7.729441 6.000000 9.044360
8.695053 6.000000 9.044360
9.793376 6.000000 9.044360
0.711550 7.000000 9.044360
1.874227 7.000000 9.044360
2.917053 7.000000 9.044360
3.892532 7.000000 9.044360
4.888636 7.000000 9.044360
5.828286 7.000000 9.044360
6.767875 7.000000 9.044360
7.729441 7.000000 9.044360
8.695053 7.000000 9.044360
9.793376 7.000000 9.044360
0.711550 8.000000 9.044360
1.874227 8.000000 9.044360
2.917053 8.000000 9.044360
3.892532 8.000000 9.044360
4.888636 8.000000 9.044360
5.828286 8.000000 9.044360
6.767875 8.000000 9.044360
7.729441 8.000000 9.044360
8.695053 8.000000 9.044360
9.793376 8.000000 9.044360
0.711550 9.000000 9.044360
1.874227 9.000000 9.044360
2.917053 9.000000 9.044360
3.892532 9.000000 9.044360
4.888636 9.000000 9.044360
5.828286 9.000000 9.044360
6.767875 9.000000 9.044360
7.729441 9.000000 9.044360
8.695053 9.000000 9.044360
9.793376 9.000000 9.044360
CELLS 0 0
CELL_TYPES 0
POINT_DATA 90
SCALARS m double
LOOKUP_TABLE default
1.000000
1.000000
1.000000
1.000000
1.000000
1.000000
1.000000
1.000000
1.000000
1.000000
1.000000
1.000000
1.000000
1.000000
1.000000
1.000000
1.000000
1.000000
1.000000
1.000000
1.000000
1.000000
1.000000
1.000000
1.000000
1.000000
1.000000
1.000000
1.000000
1.000000
1.000000
1.000000
1.000000
1.000000
1.000000
1.000000
1.000000
1.000000
1.000000
1.000000
1.000000
1.000000
1.000000
1.000000
1.000000
1.000000
1.000000
1.000000
1.000000
1.000000
1.000000
1.000000
1.000000
1.000000
1.000000
1.000000
1.000000
1.000000
1.000000
1.000000
1.000000
1.000000
1.000000
1.000000
1.000000
1.000000
1.000000
1.000000
1.000000
1.000000
1.000000
1.000000
1.000000
1.000000
1.000000
1.000000
1.000000
1.000000
1.000000
1.000000
1.000000
1.000000
1.000000
1.000000
1.000000
1.000000
1.000000
1.000000
1.000000
1.000000
VECTORS v double
-13.275441 0.000000 0.932913
-11.721501 0.000000 0.932913
-10.290261 0.000000 0.932913
-7.111007 0.000000 0.932913
-8.148129 0.000000 0.932913
0.028101 0.000000 0.932913
-0.101089 0.000000 0.932913
8.845457 0.000000 0.932913
8.122613 0.000000 0.932913
13.651250 0.000000 0.932913
-13.275441 0.000000 0.932913
-11.721501 0.000000 0.932913
-10.290261 0.000000 0.932913
-7.111007 0.000000 0.932913
-8.148129 0.000000 0.932913
0.028101 0.000000 0.932913
-0.101089 0.000000 0.932913
8.845457 0.000000 0.932913
8.122613 0.000000 0.932913
13.651250 0.000000 0.932913
-13.275441 0.000000 0.932913
-11.721501 0.000000 0.932913
-10.290261 0.000000 0.932913
-7.111007 0.000000 0.932913
-8.148129 0.000000 0.932913
0.028101 0.000000 0.932913
-0.101089 0.000000 0.932913
8.845457 0.000000 0.932913
8.122613 0.000000 0.932913
13.651250 0.000000 0.932913
-13.275441 0.000000 0.932913
-11.721501 0.000000 0.932913
-10.290261 0.000000 0.932913
-7.111007 0.000000 0.932913
-8.148129 0.000000 0.932913
0.028101 0.000000 0.932913
-0.101089 0.000000 0.932913
8.845457 0.000000 0.932913
8.122613 0.000000 0.932913
13.651250 0.000000 0.932913
-13.275441 0.000000 0.932913
-11.721501 0.000000 0.932913
-10.290261 0.000000 0.932913
-7.111007 0.000000 0.932913
-8.148129 0.000000 0.932913
0.028101 0.000000 0.932913
-0.101089 0.000000 0.932913
8.845457 0.000000 0.932913
8.122613 0.000000 0.932913
13.651250 0.000000 0.932913
-13.275441 0.000000 0.932913
-11.721501 0.000000 0.932913
-10.290261 0.000000 0.932913
-7.111007 0.000000 0.932913
-8.148129 0.000000 0.932913
0.028101 0.000000 0.932913
-0.101089 0.000000 0.932913
8.845457 0.000000 0.932913
8.122613 0.000000 0.932913
13.651250 0.000000 0.932913
-13.275441 0.000000 0.932913
-11.721501 0.000000 0.932913
-10.290261 0.000000 0.932913
-7.111007 0.000000 0.932913
-8.148129 0.000000 0.932913
0.028101 0.000000 0.932913
-0.101089 0.000000 0.932913
8.845457 0.000000 0.932913
8.122613 0.000000 0.932913
13.651250 0.000000 0.932913
-13.275441 0.000000 0.932913
-11.721501 0.000000 0.932913
-10.290261 0.000000 0.932913
-7.111007 0.000000 0.932913
-8.148129 0.000000 0.932913
0.028101 0.000000 0.932913
-0.101089 0.000000 0.932913
8.845457 0.000000 0.932913
8.122613 0.000000 0.932913
13.651250 0.000000 0.932913
-13.275441 0.000000 0.932913
-11.721501 0.000000 0.932913
-10.290261 0.000000 0.932913
-7.111007 0.000000 0.932913
-8.148129 0.000000 0.932913
0.028101 0.000000 0.932913
-0.101089 0.000000 0.932913
8.845457 0.000000 0.932913
8.122613 0.000000 0.932913
13.651250 0.000000 0.932913
