# vtk DataFile Version 4.0
hesp visualization file
ASCII
DATASET UNSTRUCTURED_GRID
POINTS 90 double
0.955102 1.000000 9.029918
2.072695 1.000000 9.029918
3.049032 1.000000 9.029918
4.027628 1.000000 9.029918
4.933281 1.000000 9.029918
5.856301 1.000000 9.029918
6.749121 1.000000 9.029918
7.649261 1.000000 9.029918
8.599530 1.000000 9.029918
9.546083 1.000000 9.029918
0.955102 2.000000 9.029918
2.072695 2.000000 9.029918
3.049032 2.000000 9.029918
4.027628 2.000000 9.029918
4.933281 2.000000 9.029918
5.856301 2.000000 9.029918
6.749121 2.000000 9.029918
7.649261 2.000000 9.029918
8.599530 2.000000 9.029918
9.546083 2.000000 9.029918
0.955102 3.000000 9.029918
2.072695 3.000000 9.029918
3.049032 3.000000 9.029918
4.027628 3.000000 9.029918
4.933281 3.000000 9.029918
5.856301 3.000000 9.029918
6.749121 3.000000 9.029918
7.649261 3.000000 9.029918
8.599530 3.000000 9.029918
9.546083 3.000000 9.029918
0.955102 4.000000 9.029918
2.072695 4.000000 9.029918
3.049032 4.000000 9.029918
4.027628 4.000000 9.029918
4.933281 4.000000 9.029918
5.856301 4.000000 9.029918
6.749121 4.000000 9.029918
7.649261 4.000000 9.029918
8.599530 4.000000 9.029918
9.546083 4.000000 9.029918
0.955102 5.000000 9.029918
2.072695 5.000000 9.029918
3.049032 5.000000 9.029918
4.027628 5.000000 9.029918
4.933281 5.000000 9.029918
5.856301 5.000000 9.029918
6.749121 5.000000 9.029918
7.649261 5.000000 9.029918
8.599530 5.000000 9.029918
9.546083 5.000000 9.029918
0.955102 6.000000 9.029918
2.072695 6.000000 9.029918
3.049032 6.000000 9.029918
4.027628 6.000000 9.029918
4.933281 6.000000 9.029918
5.856301 6.000000 9.029918
6.749121 6.000000 9.029918
7.649261 6.000000 9.029918
8.599530 6.000000 9.029918
9.546083 6.000000 9.029918
0.955102 7.000000 9.029918
2.072695 7.000000 9.029918
3.049032 7.000000 9.029918
4.027628 7.000000 9.029918
4.933281 7.000000 9.029918
5.856301 7.000000 9.029918
6.749121 7.000000 9.029918
7.649261 7.000000 9.029918
8.599530 7.000000 9.029918
9.546083 7.000000 9.029918
0.955102 8.000000 9.029918
2.072695 8.000000 9.029918
3.049032 8.000000 9.029918
4.027628 8.000000 9.029918
4.933281 8.000000 9.029918
5.856301 8.000000 9.029918
6.749121 8.000000 9.029918
7.649261 8.000000 9.029918
8.599530 8.000000 9.029918
9.546083 8.000000 9.029918
0.955102 9.000000 9.029918
2.072695 9.000000 9.029918
3.049032 9.000000 9.029918
4.027628 9.000000 9.029918
4.933281 9.000000 9.029918
5.856301 9.000000 9.029918
6.749121 9.000000 9.029918
7.649261 9.000000 9.029918
8.599530 9.000000 9.029918
9.546083 9.000000 9.029918
CELLS 0 0
CELL_TYPES 0
POINT_DATA 90
SCALARS m double
LOOKUP_TABLE default
1.000000
1.000000
1.000000
1.000000
1.000000
1.000000
1.000000
1.000000
1.000000
1.000000
1.000000
1.000000
1.000000
1.000000
1.000000
1.000000
1.000000
1.000000
1.000000
1.000000
1.000000
1.000000
1.000000
1.000000
1.000000
1.000000
1.000000
1.000000
1.000000
1.000000
1.000000
1.000000
1.000000
1.000000
1.000000
1.000000
1.000000
1.000000
1.000000
1.000000
1.000000
1.000000
1.000000
1.000000
1.000000
1.000000
1.000000
1.000000
1.000000
1.000000
1.000000
1.000000
1.000000
1.000000
1.000000
1.000000
1.000000
1.000000
1.000000
1.000000
1.000000
1.000000
1.000000
1.000000
1.000000
1.000000
1.000000
1.000000
1.000000
1.000000
1.000000
1.000000
1.000000
1.000000
1.000000
1.000000
1.000000
1.000000
1.000000
1.000000
1.000000
1.000000
1.000000
1.000000
1.000000
1.000000
1.000000
1.000000
1.000000
1.000000
VECTORS v double
-14.387302 0.000000 0.766148
-11.181352 0.000000 0.766148
-5.979645 0.000000 0.766148
-5.595529 0.000000 0.766148
0.240760 0.000000 0.766148
-2.173271 0.000000 0.766148
2.713645 0.000000 0.766148
-0.854763 0.000000 0.766148
3.931998 0.000000 0.766148
13.285423 0.000000 0.766148
-14.387302 0.000000 0.766148
-11.181352 0.000000 0.766148
-5.979645 0.000000 0.766148
-5.595529 0.000000 0.766148
0.240760 0.000000 0.766148
-2.173271 0.000000 0.766148
2.713645 0.000000 0.766148
-0.854763 0.000000 0.766148
3.931998 0.000000 0.766148
13.285423 0.000000 0.766148
-14.387302 0.000000 0.766148
-11.181352 0.000000 0.766148
-5.979645 0.000000 0.766148
-5.595529 0.000000 0.766148
0.240760 0.000000 0.766148
-2.173271 0.000000 0.766148
2.713645 0.000000 0.766148
-0.854763 0.000000 0.766148
3.931998 0.000000 0.766148
13.285423 0.000000 0.766148
-14.387302 0.000000 0.766148
-11.181352 0.000000 0.766148
-5.979645 0.000000 0.766148
-5.595529 0.000000 0.766148
0.240760 0.000000 0.766148
-2.173271 0.000000 0.766148
2.713645 0.000000 0.766148
-0.854763 0.000000 0.766148
3.931998 0.000000 0.766148
13.285423 0.000000 0.766148
-14.387302 0.000000 0.766148
-11.181352 0.000000 0.766148
-5.979645 0.000000 0.766148
-5.595529 0.000000 0.766148
0.240760 0.000000 0.766148
-2.173271 0.000000 0.766148
2.713645 0.000000 0.766148
-0.854763 0.000000 0.766148
3.931998 0.000000 0.766148
13.285423 0.000000 0.766148
-14.387302 0.000000 0.766148
-11.181352 0.000000 0.766148
-5.979645 0.000000 0.766148
-5.595529 0.000000 0.766148
0.240760 0.000000 0.766148
-2.173271 0.000000 0.766148
2.713645 0.000000 0.766148
-0.854763 0.000000 0.766148
3.931998 0.000000 0.766148
13.285423 0.000000 0.766148
-14.387302 0.000000 0.766148
-11.181352 0.000000 0.766148
-5.979645 0.000000 0.766148
-5.595529 0.000000 0.766148
0.240760 0.000000 0.766148
-2.173271 0.000000 0.766148
2.713645 0.000000 0.766148
-0.854763 0.000000 0.766148
3.931998 0.000000 0.766148
13.285423 0.000000 0.766148
-14.387302 0.000000 0.766148
-11.181352 0.000000 0.766148
-5.979645 0.000000 0.766148
-5.595529 0.000000 0.766148
0.240760 0.000000 0.766148
-2.173271 0.000000 0.766148
2.713645 0.000000 0.766148
-0.854763 0.000000 0.766148
3.931998 0.000000 0.766148
13.285423 0.000000 0.766148
-14.387302 0.000000 0.766148
-11.181352 0.000000 0.766148
-5.979645 0.000000 0.766148
-5.595529 0.000000 0.766148
0.240760 0.000000 0.766148
-2.173271 0.000000 0.766148
2.713645 0.000000 0.766148
-0.854763 0.000000 0.766148
3.931998 0.000000 0.766148
13.285423 0.000000 0.766148
