# vtk DataFile Version 4.0
hesp visualization file
ASCII
DATASET UNSTRUCTURED_GRID
POINTS 90 double
1.098976 1.000000 9.022747
2.165540 1.000000 9.022747
3.112721 1.000000 9.022747
4.046080 1.000000 9.022747
4.946080 1.000000 9.022747
5.856243 1.000000 9.022747
6.737631 1.000000 9.022747
7.666542 1.000000 9.022747
8.555671 1.000000 9.022747
9.452556 1.000000 9.022747
1.098976 2.000000 9.022747
2.165540 2.000000 9.022747
3.112721 2.000000 9.022747
4.046080 2.000000 9.022747
4.946080 2.000000 9.022747
5.856243 2.000000 9.022747
6.737631 2.000000 9.022747
7.666542 2.000000 9.022747
8.555671 2.000000 9.022747
9.452556 2.000000 9.022747
1.098976 3.000000 9.022747
2.165540 3.000000 9.022747
3.112721 3.000000 9.022747
4.046080 3.000000 9.022747
4.946080 3.000000 9.022747
5.856243 3.000000 9.022747
6.737631 3.000000 9.022747
7.666542 3.000000 9.022747
8.555671 3.000000 9.022747
9.452556 3.000000 9.022747
1.098976 4.000000 9.022747
2.165540 4.000000 9.022747
3.112721 4.000000 9.022747
4.046080 4.000000 9.022747
4.946080 4.000000 9.022747
5.856243 4.000000 9.022747
6.737631 4.000000 9.022747
7.666542 4.000000 9.022747
8.555671 4.000000 9.022747
9.452556 4.000000 9.022747
1.098976 5.000000 9.022747
2.165540 5.000000 9.022747
3.112721 5.000000 9.022747
4.046080 5.000000 9.022747
4.946080 5.000000 9.022747
5.856243 5.000000 9.022747
6.737631 5.000000 9.022747
7.666542 5.000000 9.022747
8.555671 5.000000 9.022747
9.452556 5.000000 9.022747
1.098976 6.000000 9.022747
2.165540 6.000000 9.022747
3.112721 6.000000 9.022747
4.046080 6.000000 9.022747
4.946080 6.000000 9.022747
5.856243 6.000000 9.022747
6.737631 6.000000 9.022747
7.666542 6.000000 9.022747
8.555671 6.000000 9.022747
9.452556 6.000000 9.022747
1.098976 7.000000 9.022747
2.165540 7.000000 9.022747
3.112721 7.000000 9.022747
4.046080 7.000000 9.022747
4.946080 7.000000 9.022747
5.856243 7.000000 9.022747
6.737631 7.000000 9.022747
7.666542 7.000000 9.022747
8.555671 7.000000 9.022747
9.452556 7.000000 9.022747
1.098976 8.000000 9.022747
2.165540 8.000000 9.022747
3.112721 8.000000 9.022747
4.046080 8.000000 9.022747
4.946080 8.000000 9.022747
5.856243 8.000000 9.022747
6.737631 8.000000 9.022747
7.666542 8.000000 9.022747
8.555671 8.000000 9.022747
9.452556 8.000000 9.022747
1.098976 9.000000 9.022747
2.165540 9.000000 9.022747
3.112721 9.000000 9.022747
4.046080 9.000000 9.022747
4.946080 9.000000 9.022747
5.856243 9.000000 9.022747
6.737631 9.000000 9.022747
7.666542 9.000000 9.022747
8.555671 9.000000 9.022747
9.452556 9.000000 9.022747
CELLS 0 0
CELL_TYPES 0
POINT_DATA 90
SCALARS m double
LOOKUP_TABLE default
1.000000
1.000000
1.000000
1.000000
1.000000
1.000000
1.000000
1.000000
1.000000
1.000000
1.000000
1.000000
1.000000
1.000000
1.000000
1.000000
1.000000
1.000000
1.000000
1.000000
1.000000
1.000000
1.000000
1.000000
1.000000
1.000000
1.000000
1.000000
1.000000
1.000000
1.000000
1.000000
1.000000
1.000000
1.000000
1.000000
1.000000
1.000000
1.000000
1.000000
1.000000
1.000000
1.000000
1.000000
1.000000
1.000000
1.000000
1.000000
1.000000
1.000000
1.000000
1.000000
1.000000
1.000000
1.000000
1.000000
1.000000
1.000000
1.000000
1.000000
1.000000
1.000000
1.000000
1.000000
1.000000
1.000000
1.000000
1.000000
1.000000
1.000000
1.000000
1.000000
1.000000
1.000000
1.000000
1.000000
1.000000
1.000000
1.000000
1.000000
1.000000
1.000000
1.000000
1.000000
1.000000
1.000000
1.000000
1.000000
1.000000
1.000000
VECTORS v double
-14.387302 0.000000 0.668050
-6.907159 0.000000 0.668050
-6.454191 0.000000 0.668050
1.182826 0.000000 0.668050
-2.631344 0.000000 0.668050
2.141653 0.000000 0.668050
-1.114508 0.000000 0.668050
-1.038575 0.000000 0.668050
4.609614 0.000000 0.668050
4.598955 0.000000 0.668050
-14.387302 0.000000 0.668050
-6.907159 0.000000 0.668050
-6.454191 0.000000 0.668050
1.182826 0.000000 0.668050
-2.631344 0.000000 0.668050
2.141653 0.000000 0.668050
-1.114508 0.000000 0.668050
-1.038575 0.000000 0.668050
4.609614 0.000000 0.668050
4.598955 0.000000 0.668050
-14.387302 0.000000 0.668050
-6.907159 0.000000 0.668050
-6.454191 0.000000 0.668050
1.182826 0.000000 0.668050
-2.631344 0.000000 0.668050
2.141653 0.000000 0.668050
-1.114508 0.000000 0.668050
-1.038575 0.000000 0.668050
4.609614 0.000000 0.668050
4.598955 0.000000 0.668050
-14.387302 0.000000 0.668050
-6.907159 0.000000 0.668050
-6.454191 0.000000 0.668050
1.182826 0.000000 0.668050
-2.631344 0.000000 0.668050
2.141653 0.000000 0.668050
-1.114508 0.000000 0.668050
-1.038575 0.000000 0.668050
4.609614 0.000000 0.668050
4.598955 0.000000 0.668050
-14.387302 0.000000 0.668050
-6.907159 0.000000 0.668050
-6.454191 0.000000 0.668050
1.182826 0.000000 0.668050
-2.631344 0.000000 0.668050
2.141653 0.000000 0.668050
-1.114508 0.000000 0.668050
-1.038575 0.000000 0.668050
4.609614 0.000000 0.668050
4.598955 0.000000 0.668050
-14.387302 0.000000 0.668050
-6.907159 0.000000 0.668050
-6.454191 0.000000 0.668050
1.182826 0.000000 0.668050
-2.631344 0.000000 0.668050
2.141653 0.000000 0.668050
-1.114508 0.000000 0.668050
-1.038575 0.000000 0.668050
4.609614 0.000000 0.668050
4.598955 0.000000 0.668050
-14.387302 0.000000 0.668050
-6.907159 0.000000 0.668050
-6.454191 0.000000 0.668050
1.182826 0.000000 0.668050
-2.631344 0.000000 0.668050
2.141653 0.000000 0.668050
-1.114508 0.000000 0.668050
-1.038575 0.000000 0.668050
4.609614 0.000000 0.668050
4.598955 0.000000 0.668050
-14.387302 0.000000 0.668050
-6.907159 0.000000 0.668050
-6.454191 0.000000 0.668050
1.182826 0.000000 0.668050
-2.631344 0.000000 0.668050
2.141653 0.000000 0.668050
-1.114508 0.000000 0.668050
-1.038575 0.000000 0.668050
4.609614 0.000000 0.668050
4.598955 0.000000 0.668050
-14.387302 0.000000 0.668050
-6.907159 0.000000 0.668050
-6.454191 0.000000 0.668050
1.182826 0.000000 0.668050
-2.631344 0.000000 0.668050
2.141653 0.000000 0.668050
-1.114508 0.000000 0.668050
-1.038575 0.000000 0.668050
4.609614 0.000000 0.668050
4.598955 0.000000 0.668050
