# vtk DataFile Version 4.0
hesp visualization file
ASCII
DATASET UNSTRUCTURED_GRID
POINTS 90 double
1.110997 1.000000 9.000604
2.110938 1.000000 9.000604
3.108755 1.000000 9.000604
4.073682 1.000000 9.000604
4.926318 1.000000 9.000604
5.891247 1.000000 9.000604
6.889065 1.000000 9.000604
7.889008 1.000000 9.000604
8.888990 1.000000 9.000604
9.888970 1.000000 9.000604
1.110997 2.000000 9.000604
2.110938 2.000000 9.000604
3.108755 2.000000 9.000604
4.073682 2.000000 9.000604
4.926318 2.000000 9.000604
5.891247 2.000000 9.000604
6.889065 2.000000 9.000604
7.889008 2.000000 9.000604
8.888990 2.000000 9.000604
9.888970 2.000000 9.000604
1.110997 3.000000 9.000604
2.110938 3.000000 9.000604
3.108755 3.000000 9.000604
4.073682 3.000000 9.000604
4.926318 3.000000 9.000604
5.891247 3.000000 9.000604
6.889065 3.000000 9.000604
7.889008 3.000000 9.000604
8.888990 3.000000 9.000604
9.888970 3.000000 9.000604
1.110997 4.000000 9.000604
2.110938 4.000000 9.000604
3.108755 4.000000 9.000604
4.073682 4.000000 9.000604
4.926318 4.000000 9.000604
5.891247 4.000000 9.000604
6.889065 4.000000 9.000604
7.889008 4.000000 9.000604
8.888990 4.000000 9.000604
9.888970 4.000000 9.000604
1.110997 5.000000 9.000604
2.110938 5.000000 9.000604
3.108755 5.000000 9.000604
4.073682 5.000000 9.000604
4.926318 5.000000 9.000604
5.891247 5.000000 9.000604
6.889065 5.000000 9.000604
7.889008 5.000000 9.000604
8.888990 5.000000 9.000604
9.888970 5.000000 9.000604
1.110997 6.000000 9.000604
2.110938 6.000000 9.000604
3.108755 6.000000 9.000604
4.073682 6.000000 9.000604
4.926318 6.000000 9.000604
5.891247 6.000000 9.000604
6.889065 6.000000 9.000604
7.889008 6.000000 9.000604
8.888990 6.000000 9.000604
9.888970 6.000000 9.000604
1.110997 7.000000 9.000604
2.110938 7.000000 9.000604
3.108755 7.000000 9.000604
4.073682 7.000000 9.000604
4.926318 7.000000 9.000604
5.891247 7.000000 9.000604
6.889065 7.000000 9.000604
7.889008 7.000000 9.000604
8.888990 7.000000 9.000604
9.888970 7.000000 9.000604
1.110997 8.000000 9.000604
2.110938 8.000000 9.000604
3.108755 8.000000 9.000604
4.073682 8.000000 9.000604
4.926318 8.000000 9.000604
5.891247 8.000000 9.000604
6.889065 8.000000 9.000604
7.889008 8.000000 9.000604
8.888990 8.000000 9.000604
9.888970 8.000000 9.000604
1.110997 9.000000 9.000604
2.110938 9.000000 9.000604
3.108755 9.000000 9.000604
4.073682 9.000000 9.000604
4.926318 9.000000 9.000604
5.891247 9.000000 9.000604
6.889065 9.000000 9.000604
7.889008 9.000000 9.000604
8.888990 9.000000 9.000604
9.888970 9.000000 9.000604
CELLS 0 0
CELL_TYPES 0
POINT_DATA 90
SCALARS m double
LOOKUP_TABLE default
1.000000
1.000000
1.000000
1.000000
1.000000
1.000000
1.000000
1.000000
1.000000
1.000000
1.000000
1.000000
1.000000
1.000000
1.000000
1.000000
1.000000
1.000000
1.000000
1.000000
1.000000
1.000000
1.000000
1.000000
1.000000
1.000000
1.000000
1.000000
1.000000
1.000000
1.000000
1.000000
1.000000
1.000000
1.000000
1.000000
1.000000
1.000000
1.000000
1.000000
1.000000
1.000000
1.000000
1.000000
1.000000
1.000000
1.000000
1.000000
1.000000
1.000000
1.000000
1.000000
1.000000
1.000000
1.000000
1.000000
1.000000
1.000000
1.000000
1.000000
1.000000
1.000000
1.000000
1.000000
1.000000
1.000000
1.000000
1.000000
1.000000
1.000000
1.000000
1.000000
1.000000
1.000000
1.000000
1.000000
1.000000
1.000000
1.000000
1.000000
1.000000
1.000000
1.000000
1.000000
1.000000
1.000000
1.000000
1.000000
1.000000
1.000000
VECTORS v double
9.998916 0.000000 0.108891
9.962002 0.000000 0.108891
9.026973 0.000000 0.108891
1.016530 0.000000 0.108891
-1.016467 0.000000 0.108891
-9.027095 0.000000 0.108891
-9.961502 0.000000 0.108891
-10.001022 0.000000 0.108891
-9.999562 0.000000 0.108891
-9.998811 0.000000 0.108891
9.998916 0.000000 0.108891
9.962002 0.000000 0.108891
9.026973 0.000000 0.108891
1.016530 0.000000 0.108891
-1.016467 0.000000 0.108891
-9.027095 0.000000 0.108891
-9.961502 0.000000 0.108891
-10.001022 0.000000 0.108891
-9.999562 0.000000 0.108891
-9.998811 0.000000 0.108891
9.998916 0.000000 0.108891
9.962002 0.000000 0.108891
9.026973 0.000000 0.108891
1.016530 0.000000 0.108891
-1.016467 0.000000 0.108891
-9.027095 0.000000 0.108891
-9.961502 0.000000 0.108891
-10.001022 0.000000 0.108891
-9.999562 0.000000 0.108891
-9.998811 0.000000 0.108891
9.998916 0.000000 0.108891
9.962002 0.000000 0.108891
9.026973 0.000000 0.108891
1.016530 0.000000 0.108891
-1.016467 0.000000 0.108891
-9.027095 0.000000 0.108891
-9.961502 0.000000 0.108891
-10.001022 0.000000 0.108891
-9.999562 0.000000 0.108891
-9.998811 0.000000 0.108891
9.998916 0.000000 0.108891
9.962002 0.000000 0.108891
9.026973 0.000000 0.108891
1.016530 0.000000 0.108891
-1.016467 0.000000 0.108891
-9.027095 0.000000 0.108891
-9.961502 0.000000 0.108891
-10.001022 0.000000 0.108891
-9.999562 0.000000 0.108891
-9.998811 0.000000 0.108891
9.998916 0.000000 0.108891
9.962002 0.000000 0.108891
9.026973 0.000000 0.108891
1.016530 0.000000 0.108891
-1.016467 0.000000 0.108891
-9.027095 0.000000 0.108891
-9.961502 0.000000 0.108891
-10.001022 0.000000 0.108891
-9.999562 0.000000 0.108891
-9.998811 0.000000 0.108891
9.998916 0.000000 0.108891
9.962002 0.000000 0.108891
9.026973 0.000000 0.108891
1.016530 0.000000 0.108891
-1.016467 0.000000 0.108891
-9.027095 0.000000 0.108891
-9.961502 0.000000 0.108891
-10.001022 0.000000 0.108891
-9.999562 0.000000 0.108891
-9.998811 0.000000 0.108891
9.998916 0.000000 0.108891
9.962002 0.000000 0.108891
9.026973 0.000000 0.108891
1.016530 0.000000 0.108891
-1.016467 0.000000 0.108891
-9.027095 0.000000 0.108891
-9.961502 0.000000 0.108891
-10.001022 0.000000 0.108891
-9.999562 0.000000 0.108891
-9.998811 0.000000 0.108891
9.998916 0.000000 0.108891
9.962002 0.000000 0.108891
9.026973 0.000000 0.108891
1.016530 0.000000 0.108891
-1.016467 0.000000 0.108891
-9.027095 0.000000 0.108891
-9.961502 0.000000 0.108891
-10.001022 0.000000 0.108891
-9.999562 0.000000 0.108891
-9.998811 0.000000 0.108891
