# vtk DataFile Version 4.0
hesp visualization file
ASCII
DATASET UNSTRUCTURED_GRID
POINTS 90 double
1.011001 1.000000 9.000006
2.010999 1.000000 9.000006
3.010999 1.000000 9.000006
4.010967 1.000000 9.000006
4.989033 1.000000 9.000006
5.989001 1.000000 9.000006
6.989001 1.000000 9.000006
7.989001 1.000000 9.000006
8.988996 1.000000 9.000006
9.988996 1.000000 9.000006
1.011001 2.000000 9.000006
2.010999 2.000000 9.000006
3.010999 2.000000 9.000006
4.010967 2.000000 9.000006
4.989033 2.000000 9.000006
5.989001 2.000000 9.000006
6.989001 2.000000 9.000006
7.989001 2.000000 9.000006
8.988996 2.000000 9.000006
9.988996 2.000000 9.000006
1.011001 3.000000 9.000006
2.010999 3.000000 9.000006
3.010999 3.000000 9.000006
4.010967 3.000000 9.000006
4.989033 3.000000 9.000006
5.989001 3.000000 9.000006
6.989001 3.000000 9.000006
7.989001 3.000000 9.000006
8.988996 3.000000 9.000006
9.988996 3.000000 9.000006
1.011001 4.000000 9.000006
2.010999 4.000000 9.000006
3.010999 4.000000 9.000006
4.010967 4.000000 9.000006
4.989033 4.000000 9.000006
5.989001 4.000000 9.000006
6.989001 4.000000 9.000006
7.989001 4.000000 9.000006
8.988996 4.000000 9.000006
9.988996 4.000000 9.000006
1.011001 5.000000 9.000006
2.010999 5.000000 9.000006
3.010999 5.000000 9.000006
4.010967 5.000000 9.000006
4.989033 5.000000 9.000006
5.989001 5.000000 9.000006
6.989001 5.000000 9.000006
7.989001 5.000000 9.000006
8.988996 5.000000 9.000006
9.988996 5.000000 9.000006
1.011001 6.000000 9.000006
2.010999 6.000000 9.000006
3.010999 6.000000 9.000006
4.010967 6.000000 9.000006
4.989033 6.000000 9.000006
5.989001 6.000000 9.000006
6.989001 6.000000 9.000006
7.989001 6.000000 9.000006
8.988996 6.000000 9.000006
9.988996 6.000000 9.000006
1.011001 7.000000 9.000006
2.010999 7.000000 9.000006
3.010999 7.000000 9.000006
4.010967 7.000000 9.000006
4.989033 7.000000 9.000006
5.989001 7.000000 9.000006
6.989001 7.000000 9.000006
7.989001 7.000000 9.000006
8.988996 7.000000 9.000006
9.988996 7.000000 9.000006
1.011001 8.000000 9.000006
2.010999 8.000000 9.000006
3.010999 8.000000 9.000006
4.010967 8.000000 9.000006
4.989033 8.000000 9.000006
5.989001 8.000000 9.000006
6.989001 8.000000 9.000006
7.989001 8.000000 9.000006
8.988996 8.000000 9.000006
9.988996 8.000000 9.000006
1.011001 9.000000 9.000006
2.010999 9.000000 9.000006
3.010999 9.000000 9.000006
4.010967 9.000000 9.000006
4.989033 9.000000 9.000006
5.989001 9.000000 9.000006
6.989001 9.000000 9.000006
7.989001 9.000000 9.000006
8.988996 9.000000 9.000006
9.988996 9.000000 9.000006
CELLS 0 0
CELL_TYPES 0
POINT_DATA 90
SCALARS m double
LOOKUP_TABLE default
1.000000
1.000000
1.000000
1.000000
1.000000
1.000000
1.000000
1.000000
1.000000
1.000000
1.000000
1.000000
1.000000
1.000000
1.000000
1.000000
1.000000
1.000000
1.000000
1.000000
1.000000
1.000000
1.000000
1.000000
1.000000
1.000000
1.000000
1.000000
1.000000
1.000000
1.000000
1.000000
1.000000
1.000000
1.000000
1.000000
1.000000
1.000000
1.000000
1.000000
1.000000
1.000000
1.000000
1.000000
1.000000
1.000000
1.000000
1.000000
1.000000
1.000000
1.000000
1.000000
1.000000
1.000000
1.000000
1.000000
1.000000
1.000000
1.000000
1.000000
1.000000
1.000000
1.000000
1.000000
1.000000
1.000000
1.000000
1.000000
1.000000
1.000000
1.000000
1.000000
1.000000
1.000000
1.000000
1.000000
1.000000
1.000000
1.000000
1.000000
1.000000
1.000000
1.000000
1.000000
1.000000
1.000000
1.000000
1.000000
1.000000
1.000000
VECTORS v double
9.999995 0.000000 0.010791
10.000005 0.000000 0.010791
9.999950 0.000000 0.010791
9.900156 0.000000 0.010791
-9.900156 0.000000 0.010791
-9.999950 0.000000 0.010791
-10.000000 0.000000 0.010791
-10.000030 0.000000 0.010791
-9.999970 0.000000 0.010791
-10.000000 0.000000 0.010791
9.999995 0.000000 0.010791
10.000005 0.000000 0.010791
9.999950 0.000000 0.010791
9.900156 0.000000 0.010791
-9.900156 0.000000 0.010791
-9.999950 0.000000 0.010791
-10.000000 0.000000 0.010791
-10.000030 0.000000 0.010791
-9.999970 0.000000 0.010791
-10.000000 0.000000 0.010791
9.999995 0.000000 0.010791
10.000005 0.000000 0.010791
9.999950 0.000000 0.010791
9.900156 0.000000 0.010791
-9.900156 0.000000 0.010791
-9.999950 0.000000 0.010791
-10.000000 0.000000 0.010791
-10.000030 0.000000 0.010791
-9.999970 0.000000 0.010791
-10.000000 0.000000 0.010791
9.999995 0.000000 0.010791
10.000005 0.000000 0.010791
9.999950 0.000000 0.010791
9.900156 0.000000 0.010791
-9.900156 0.000000 0.010791
-9.999950 0.000000 0.010791
-10.000000 0.000000 0.010791
-10.000030 0.000000 0.010791
-9.999970 0.000000 0.010791
-10.000000 0.000000 0.010791
9.999995 0.000000 0.010791
10.000005 0.000000 0.010791
9.999950 0.000000 0.010791
9.900156 0.000000 0.010791
-9.900156 0.000000 0.010791
-9.999950 0.000000 0.010791
-10.000000 0.000000 0.010791
-10.000030 0.000000 0.010791
-9.999970 0.000000 0.010791
-10.000000 0.000000 0.010791
9.999995 0.000000 0.010791
10.000005 0.000000 0.010791
9.999950 0.000000 0.010791
9.900156 0.000000 0.010791
-9.900156 0.000000 0.010791
-9.999950 0.000000 0.010791
-10.000000 0.000000 0.010791
-10.000030 0.000000 0.010791
-9.999970 0.000000 0.010791
-10.000000 0.000000 0.010791
9.999995 0.000000 0.010791
10.000005 0.000000 0.010791
9.999950 0.000000 0.010791
9.900156 0.000000 0.010791
-9.900156 0.000000 0.010791
-9.999950 0.000000 0.010791
-10.000000 0.000000 0.010791
-10.000030 0.000000 0.010791
-9.999970 0.000000 0.010791
-10.000000 0.000000 0.010791
9.999995 0.000000 0.010791
10.000005 0.000000 0.010791
9.999950 0.000000 0.010791
9.900156 0.000000 0.010791
-9.900156 0.000000 0.010791
-9.999950 0.000000 0.010791
-10.000000 0.000000 0.010791
-10.000030 0.000000 0.010791
-9.999970 0.000000 0.010791
-10.000000 0.000000 0.010791
9.999995 0.000000 0.010791
10.000005 0.000000 0.010791
9.999950 0.000000 0.010791
9.900156 0.000000 0.010791
-9.900156 0.000000 0.010791
-9.999950 0.000000 0.010791
-10.000000 0.000000 0.010791
-10.000030 0.000000 0.010791
-9.999970 0.000000 0.010791
-10.000000 0.000000 0.010791
