# vtk DataFile Version 4.0
hesp visualization file
ASCII
DATASET UNSTRUCTURED_GRID
POINTS 90 double
0.868778 1.000000 9.034691
2.003167 1.000000 9.034691
3.011563 1.000000 9.034691
3.983469 1.000000 9.034691
4.934516 1.000000 9.034691
5.840569 1.000000 9.034691
6.764027 1.000000 9.034691
7.655430 1.000000 9.034691
8.624495 1.000000 9.034691
9.632014 1.000000 9.034691
0.868778 2.000000 9.034691
2.003167 2.000000 9.034691
3.011563 2.000000 9.034691
3.983469 2.000000 9.034691
4.934516 2.000000 9.034691
5.840569 2.000000 9.034691
6.764027 2.000000 9.034691
7.655430 2.000000 9.034691
8.624495 2.000000 9.034691
9.632014 2.000000 9.034691
0.868778 3.000000 9.034691
2.003167 3.000000 9.034691
3.011563 3.000000 9.034691
3.983469 3.000000 9.034691
4.934516 3.000000 9.034691
5.840569 3.000000 9.034691
6.764027 3.000000 9.034691
7.655430 3.000000 9.034691
8.624495 3.000000 9.034691
9.632014 3.000000 9.034691
0.868778 4.000000 9.034691
2.003167 4.000000 9.034691
3.011563 4.000000 9.034691
3.983469 4.000000 9.034691
4.934516 4.000000 9.034691
5.840569 4.000000 9.034691
6.764027 4.000000 9.034691
7.655430 4.000000 9.034691
8.624495 4.000000 9.034691
9.632014 4.000000 9.034691
0.868778 5.000000 9.034691
2.003167 5.000000 9.034691
3.011563 5.000000 9.034691
3.983469 5.000000 9.034691
4.934516 5.000000 9.034691
5.840569 5.000000 9.034691
6.764027 5.000000 9.034691
7.655430 5.000000 9.034691
8.624495 5.000000 9.034691
9.632014 5.000000 9.034691
0.868778 6.000000 9.034691
2.003167 6.000000 9.034691
3.011563 6.000000 9.034691
3.983469 6.000000 9.034691
4.934516 6.000000 9.034691
5.840569 6.000000 9.034691
6.764027 6.000000 9.034691
7.655430 6.000000 9.034691
8.624495 6.000000 9.034691
9.632014 6.000000 9.034691
0.868778 7.000000 9.034691
2.003167 7.000000 9.034691
3.011563 7.000000 9.034691
3.983469 7.000000 9.034691
4.934516 7.000000 9.034691
5.840569 7.000000 9.034691
6.764027 7.000000 9.034691
7.655430 7.000000 9.034691
8.624495 7.000000 9.034691
9.632014 7.000000 9.034691
0.868778 8.000000 9.034691
2.003167 8.000000 9.034691
3.011563 8.000000 9.034691
3.983469 8.000000 9.034691
4.934516 8.000000 9.034691
5.840569 8.000000 9.034691
6.764027 8.000000 9.034691
7.655430 8.000000 9.034691
8.624495 8.000000 9.034691
9.632014 8.000000 9.034691
0.868778 9.000000 9.034691
2.003167 9.000000 9.034691
3.011563 9.000000 9.034691
3.983469 9.000000 9.034691
4.934516 9.000000 9.034691
5.840569 9.000000 9.034691
6.764027 9.000000 9.034691
7.655430 9.000000 9.034691
8.624495 9.000000 9.034691
9.632014 9.000000 9.034691
CELLS 0 0
CELL_TYPES 0
POINT_DATA 90
SCALARS m double
LOOKUP_TABLE default
1.000000
1.000000
1.000000
1.000000
1.000000
1.000000
1.000000
1.000000
1.000000
1.000000
1.000000
1.000000
1.000000
1.000000
1.000000
1.000000
1.000000
1.000000
1.000000
1.000000
1.000000
1.000000
1.000000
1.000000
1.000000
1.000000
1.000000
1.000000
1.000000
1.000000
1.000000
1.000000
1.000000
1.000000
1.000000
1.000000
1.000000
1.000000
1.000000
1.000000
1.000000
1.000000
1.000000
1.000000
1.000000
1.000000
1.000000
1.000000
1.000000
1.000000
1.000000
1.000000
1.000000
1.000000
1.000000
1.000000
1.000000
1.000000
1.000000
1.000000
1.000000
1.000000
1.000000
1.000000
1.000000
1.000000
1.000000
1.000000
1.000000
1.000000
1.000000
1.000000
1.000000
1.000000
1.000000
1.000000
1.000000
1.000000
1.000000
1.000000
1.000000
1.000000
1.000000
1.000000
1.000000
1.000000
1.000000
1.000000
1.000000
1.000000
VECTORS v double
-14.387302 0.000000 0.825006
-11.721501 0.000000 0.825006
-6.853938 0.000000 0.825006
-8.595458 0.000000 0.825006
-0.464280 0.000000 0.825006
-2.581345 0.000000 0.825006
1.846374 0.000000 0.825006
3.198393 0.000000 0.825006
4.795918 0.000000 0.825006
14.763111 0.000000 0.825006
-14.387302 0.000000 0.825006
-11.721501 0.000000 0.825006
-6.853938 0.000000 0.825006
-8.595458 0.000000 0.825006
-0.464280 0.000000 0.825006
-2.581345 0.000000 0.825006
1.846374 0.000000 0.825006
3.198393 0.000000 0.825006
4.795918 0.000000 0.825006
14.763111 0.000000 0.825006
-14.387302 0.000000 0.825006
-11.721501 0.000000 0.825006
-6.853938 0.000000 0.825006
-8.595458 0.000000 0.825006
-0.464280 0.000000 0.825006
-2.581345 0.000000 0.825006
1.846374 0.000000 0.825006
3.198393 0.000000 0.825006
4.795918 0.000000 0.825006
14.763111 0.000000 0.825006
-14.387302 0.000000 0.825006
-11.721501 0.000000 0.825006
-6.853938 0.000000 0.825006
-8.595458 0.000000 0.825006
-0.464280 0.000000 0.825006
-2.581345 0.000000 0.825006
1.846374 0.000000 0.825006
3.198393 0.000000 0.825006
4.795918 0.000000 0.825006
14.763111 0.000000 0.825006
-14.387302 0.000000 0.825006
-11.721501 0.000000 0.825006
-6.853938 0.000000 0.825006
-8.595458 0.000000 0.825006
-0.464280 0.000000 0.825006
-2.581345 0.000000 0.825006
1.846374 0.000000 0.825006
3.198393 0.000000 0.825006
4.795918 0.000000 0.825006
14.763111 0.000000 0.825006
-14.387302 0.000000 0.825006
-11.721501 0.000000 0.825006
-6.853938 0.000000 0.825006
-8.595458 0.000000 0.825006
-0.464280 0.000000 0.825006
-2.581345 0.000000 0.825006
1.846374 0.000000 0.825006
3.198393 0.000000 0.825006
4.795918 0.000000 0.825006
14.763111 0.000000 0.825006
-14.387302 0.000000 0.825006
-11.721501 0.000000 0.825006
-6.853938 0.000000 0.825006
-8.595458 0.000000 0.825006
-0.464280 0.000000 0.825006
-2.581345 0.000000 0.825006
1.846374 0.000000 0.825006
3.198393 0.000000 0.825006
4.795918 0.000000 0.825006
14.763111 0.000000 0.825006
-14.387302 0.000000 0.825006
-11.721501 0.000000 0.825006
-6.853938 0.000000 0.825006
-8.595458 0.000000 0.825006
-0.464280 0.000000 0.825006
-2.581345 0.000000 0.825006
1.846374 0.000000 0.825006
3.198393 0.000000 0.825006
4.795918 0.000000 0.825006
14.763111 0.000000 0.825006
-14.387302 0.000000 0.825006
-11.721501 0.000000 0.825006
-6.853938 0.000000 0.825006
-8.595458 0.000000 0.825006
-0.464280 0.000000 0.825006
-2.581345 0.000000 0.825006
1.846374 0.000000 0.825006
3.198393 0.000000 0.825006
4.795918 0.000000 0.825006
14.763111 0.000000 0.825006
