# vtk DataFile Version 4.0
hesp visualization file
ASCII
DATASET UNSTRUCTURED_GRID
POINTS 90 double
1.312295 1.000000 9.005054
2.271797 1.000000 9.005054
3.153881 1.000000 9.005054
4.038967 1.000000 9.005054
4.961034 1.000000 9.005054
5.846115 1.000000 9.005054
6.728137 1.000000 9.005054
7.686911 1.000000 9.005054
8.679808 1.000000 9.005054
9.679101 1.000000 9.005054
1.312295 2.000000 9.005054
2.271797 2.000000 9.005054
3.153881 2.000000 9.005054
4.038967 2.000000 9.005054
4.961034 2.000000 9.005054
5.846115 2.000000 9.005054
6.728137 2.000000 9.005054
7.686911 2.000000 9.005054
8.679808 2.000000 9.005054
9.679101 2.000000 9.005054
1.312295 3.000000 9.005054
2.271797 3.000000 9.005054
3.153881 3.000000 9.005054
4.038967 3.000000 9.005054
4.961034 3.000000 9.005054
5.846115 3.000000 9.005054
6.728137 3.000000 9.005054
7.686911 3.000000 9.005054
8.679808 3.000000 9.005054
9.679101 3.000000 9.005054
1.312295 4.000000 9.005054
2.271797 4.000000 9.005054
3.153881 4.000000 9.005054
4.038967 4.000000 9.005054
4.961034 4.000000 9.005054
5.846115 4.000000 9.005054
6.728137 4.000000 9.005054
7.686911 4.000000 9.005054
8.679808 4.000000 9.005054
9.679101 4.000000 9.005054
1.312295 5.000000 9.005054
2.271797 5.000000 9.005054
3.153881 5.000000 9.005054
4.038967 5.000000 9.005054
4.961034 5.000000 9.005054
5.846115 5.000000 9.005054
6.728137 5.000000 9.005054
7.686911 5.000000 9.005054
8.679808 5.000000 9.005054
9.679101 5.000000 9.005054
1.312295 6.000000 9.005054
2.271797 6.000000 9.005054
3.153881 6.000000 9.005054
4.038967 6.000000 9.005054
4.961034 6.000000 9.005054
5.846115 6.000000 9.005054
6.728137 6.000000 9.005054
7.686911 6.000000 9.005054
8.679808 6.000000 9.005054
9.679101 6.000000 9.005054
1.312295 7.000000 9.005054
2.271797 7.000000 9.005054
3.153881 7.000000 9.005054
4.038967 7.000000 9.005054
4.961034 7.000000 9.005054
5.846115 7.000000 9.005054
6.728137 7.000000 9.005054
7.686911 7.000000 9.005054
8.679808 7.000000 9.005054
9.679101 7.000000 9.005054
1.312295 8.000000 9.005054
2.271797 8.000000 9.005054
3.153881 8.000000 9.005054
4.038967 8.000000 9.005054
4.961034 8.000000 9.005054
5.846115 8.000000 9.005054
6.728137 8.000000 9.005054
7.686911 8.000000 9.005054
8.679808 8.000000 9.005054
9.679101 8.000000 9.005054
1.312295 9.000000 9.005054
2.271797 9.000000 9.005054
3.153881 9.000000 9.005054
4.038967 9.000000 9.005054
4.961034 9.000000 9.005054
5.846115 9.000000 9.005054
6.728137 9.000000 9.005054
7.686911 9.000000 9.005054
8.679808 9.000000 9.005054
9.679101 9.000000 9.005054
CELLS 0 0
CELL_TYPES 0
POINT_DATA 90
SCALARS m double
LOOKUP_TABLE default
1.000000
1.000000
1.000000
1.000000
1.000000
1.000000
1.000000
1.000000
1.000000
1.000000
1.000000
1.000000
1.000000
1.000000
1.000000
1.000000
1.000000
1.000000
1.000000
1.000000
1.000000
1.000000
1.000000
1.000000
1.000000
1.000000
1.000000
1.000000
1.000000
1.000000
1.000000
1.000000
1.000000
1.000000
1.000000
1.000000
1.000000
1.000000
1.000000
1.000000
1.000000
1.000000
1.000000
1.000000
1.000000
1.000000
1.000000
1.000000
1.000000
1.000000
1.000000
1.000000
1.000000
1.000000
1.000000
1.000000
1.000000
1.000000
1.000000
1.000000
1.000000
1.000000
1.000000
1.000000
1.000000
1.000000
1.000000
1.000000
1.000000
1.000000
1.000000
1.000000
1.000000
1.000000
1.000000
1.000000
1.000000
1.000000
1.000000
1.000000
1.000000
1.000000
1.000000
1.000000
1.000000
1.000000
1.000000
1.000000
1.000000
1.000000
VECTORS v double
7.933370 0.000000 0.314900
2.267458 0.000000 0.314900
-3.763525 0.000000 0.314900
2.630703 0.000000 0.314900
-2.630924 0.000000 0.314900
3.762537 0.000000 0.314900
-2.288877 0.000000 0.314900
-8.169919 0.000000 0.314900
-9.759831 0.000000 0.314900
-9.981027 0.000000 0.314900
7.933370 0.000000 0.314900
2.267458 0.000000 0.314900
-3.763525 0.000000 0.314900
2.630703 0.000000 0.314900
-2.630924 0.000000 0.314900
3.762537 0.000000 0.314900
-2.288877 0.000000 0.314900
-8.169919 0.000000 0.314900
-9.759831 0.000000 0.314900
-9.981027 0.000000 0.314900
7.933370 0.000000 0.314900
2.267458 0.000000 0.314900
-3.763525 0.000000 0.314900
2.630703 0.000000 0.314900
-2.630924 0.000000 0.314900
3.762537 0.000000 0.314900
-2.288877 0.000000 0.314900
-8.169919 0.000000 0.314900
-9.759831 0.000000 0.314900
-9.981027 0.000000 0.314900
7.933370 0.000000 0.314900
2.267458 0.000000 0.314900
-3.763525 0.000000 0.314900
2.630703 0.000000 0.314900
-2.630924 0.000000 0.314900
3.762537 0.000000 0.314900
-2.288877 0.000000 0.314900
-8.169919 0.000000 0.314900
-9.759831 0.000000 0.314900
-9.981027 0.000000 0.314900
7.933370 0.000000 0.314900
2.267458 0.000000 0.314900
-3.763525 0.000000 0.314900
2.630703 0.000000 0.314900
-2.630924 0.000000 0.314900
3.762537 0.000000 0.314900
-2.288877 0.000000 0.314900
-8.169919 0.000000 0.314900
-9.759831 0.000000 0.314900
-9.981027 0.000000 0.314900
7.933370 0.000000 0.314900
2.267458 0.000000 0.314900
-3.763525 0.000000 0.314900
2.630703 0.000000 0.314900
-2.630924 0.000000 0.314900
3.762537 0.000000 0.314900
-2.288877 0.000000 0.314900
-8.169919 0.000000 0.314900
-9.759831 0.000000 0.314900
-9.981027 0.000000 0.314900
7.933370 0.000000 0.314900
2.267458 0.000000 0.314900
-3.763525 0.000000 0.314900
2.630703 0.000000 0.314900
-2.630924 0.000000 0.314900
3.762537 0.000000 0.314900
-2.288877 0.000000 0.314900
-8.169919 0.000000 0.314900
-9.759831 0.000000 0.314900
-9.981027 0.000000 0.314900
7.933370 0.000000 0.314900
2.267458 0.000000 0.314900
-3.763525 0.000000 0.314900
2.630703 0.000000 0.314900
-2.630924 0.000000 0.314900
3.762537 0.000000 0.314900
-2.288877 0.000000 0.314900
-8.169919 0.000000 0.314900
-9.759831 0.000000 0.314900
-9.981027 0.000000 0.314900
7.933370 0.000000 0.314900
2.267458 0.000000 0.314900
-3.763525 0.000000 0.314900
2.630703 0.000000 0.314900
-2.630924 0.000000 0.314900
3.762537 0.000000 0.314900
-2.288877 0.000000 0.314900
-8.169919 0.000000 0.314900
-9.759831 0.000000 0.314900
-9.981027 0.000000 0.314900
