# vtk DataFile Version 4.0
hesp visualization file
ASCII
DATASET UNSTRUCTURED_GRID
POINTS 90 double
1.324850 1.000000 9.012807
2.225623 1.000000 9.012807
3.153432 1.000000 9.012807
4.050429 1.000000 9.012807
4.949417 1.000000 9.012807
5.845259 1.000000 9.012807
6.765305 1.000000 9.012807
7.630762 1.000000 9.012807
8.533585 1.000000 9.012807
9.499384 1.000000 9.012807
1.324850 2.000000 9.012807
2.225623 2.000000 9.012807
3.153432 2.000000 9.012807
4.050429 2.000000 9.012807
4.949417 2.000000 9.012807
5.845259 2.000000 9.012807
6.765305 2.000000 9.012807
7.630762 2.000000 9.012807
8.533585 2.000000 9.012807
9.499384 2.000000 9.012807
1.324850 3.000000 9.012807
2.225623 3.000000 9.012807
3.153432 3.000000 9.012807
4.050429 3.000000 9.012807
4.949417 3.000000 9.012807
5.845259 3.000000 9.012807
6.765305 3.000000 9.012807
7.630762 3.000000 9.012807
8.533585 3.000000 9.012807
9.499384 3.000000 9.012807
1.324850 4.000000 9.012807
2.225623 4.000000 9.012807
3.153432 4.000000 9.012807
4.050429 4.000000 9.012807
4.949417 4.000000 9.012807
5.845259 4.000000 9.012807
6.765305 4.000000 9.012807
7.630762 4.000000 9.012807
8.533585 4.000000 9.012807
9.499384 4.000000 9.012807
1.324850 5.000000 9.012807
2.225623 5.000000 9.012807
3.153432 5.000000 9.012807
4.050429 5.000000 9.012807
4.949417 5.000000 9.012807
5.845259 5.000000 9.012807
6.765305 5.000000 9.012807
7.630762 5.000000 9.012807
8.533585 5.000000 9.012807
9.499384 5.000000 9.012807
1.324850 6.000000 9.012807
2.225623 6.000000 9.012807
3.153432 6.000000 9.012807
4.050429 6.000000 9.012807
4.949417 6.000000 9.012807
5.845259 6.000000 9.012807
6.765305 6.000000 9.012807
7.630762 6.000000 9.012807
8.533585 6.000000 9.012807
9.499384 6.000000 9.012807
1.324850 7.000000 9.012807
2.225623 7.000000 9.012807
3.153432 7.000000 9.012807
4.050429 7.000000 9.012807
4.949417 7.000000 9.012807
5.845259 7.000000 9.012807
6.765305 7.000000 9.012807
7.630762 7.000000 9.012807
8.533585 7.000000 9.012807
9.499384 7.000000 9.012807
1.324850 8.000000 9.012807
2.225623 8.000000 9.012807
3.153432 8.000000 9.012807
4.050429 8.000000 9.012807
4.949417 8.000000 9.012807
5.845259 8.000000 9.012807
6.765305 8.000000 9.012807
7.630762 8.000000 9.012807
8.533585 8.000000 9.012807
9.499384 8.000000 9.012807
1.324850 9.000000 9.012807
2.225623 9.000000 9.012807
3.153432 9.000000 9.012807
4.050429 9.000000 9.012807
4.949417 9.000000 9.012807
5.845259 9.000000 9.012807
6.765305 9.000000 9.012807
7.630762 9.000000 9.012807
8.533585 9.000000 9.012807
9.499384 9.000000 9.012807
CELLS 0 0
CELL_TYPES 0
POINT_DATA 90
SCALARS m double
LOOKUP_TABLE default
1.000000
1.000000
1.000000
1.000000
1.000000
1.000000
1.000000
1.000000
1.000000
1.000000
1.000000
1.000000
1.000000
1.000000
1.000000
1.000000
1.000000
1.000000
1.000000
1.000000
1.000000
1.000000
1.000000
1.000000
1.000000
1.000000
1.000000
1.000000
1.000000
1.000000
1.000000
1.000000
1.000000
1.000000
1.000000
1.000000
1.000000
1.000000
1.000000
1.000000
1.000000
1.000000
1.000000
1.000000
1.000000
1.000000
1.000000
1.000000
1.000000
1.000000
1.000000
1.000000
1.000000
1.000000
1.000000
1.000000
1.000000
1.000000
1.000000
1.000000
1.000000
1.000000
1.000000
1.000000
1.000000
1.000000
1.000000
1.000000
1.000000
1.000000
1.000000
1.000000
1.000000
1.000000
1.000000
1.000000
1.000000
1.000000
1.000000
1.000000
1.000000
1.000000
1.000000
1.000000
1.000000
1.000000
1.000000
1.000000
1.000000
1.000000
VECTORS v double
-8.925932 0.000000 0.501285
-3.053625 0.000000 0.501285
2.381449 0.000000 0.501285
-2.802331 0.000000 0.501285
2.758680 0.000000 0.501285
-2.692157 0.000000 0.501285
1.319219 0.000000 0.501285
2.660080 0.000000 0.501285
-3.692772 0.000000 0.501285
-7.952645 0.000000 0.501285
-8.925932 0.000000 0.501285
-3.053625 0.000000 0.501285
2.381449 0.000000 0.501285
-2.802331 0.000000 0.501285
2.758680 0.000000 0.501285
-2.692157 0.000000 0.501285
1.319219 0.000000 0.501285
2.660080 0.000000 0.501285
-3.692772 0.000000 0.501285
-7.952645 0.000000 0.501285
-8.925932 0.000000 0.501285
-3.053625 0.000000 0.501285
2.381449 0.000000 0.501285
-2.802331 0.000000 0.501285
2.758680 0.000000 0.501285
-2.692157 0.000000 0.501285
1.319219 0.000000 0.501285
2.660080 0.000000 0.501285
-3.692772 0.000000 0.501285
-7.952645 0.000000 0.501285
-8.925932 0.000000 0.501285
-3.053625 0.000000 0.501285
2.381449 0.000000 0.501285
-2.802331 0.000000 0.501285
2.758680 0.000000 0.501285
-2.692157 0.000000 0.501285
1.319219 0.000000 0.501285
2.660080 0.000000 0.501285
-3.692772 0.000000 0.501285
-7.952645 0.000000 0.501285
-8.925932 0.000000 0.501285
-3.053625 0.000000 0.501285
2.381449 0.000000 0.501285
-2.802331 0.000000 0.501285
2.758680 0.000000 0.501285
-2.692157 0.000000 0.501285
1.319219 0.000000 0.501285
2.660080 0.000000 0.501285
-3.692772 0.000000 0.501285
-7.952645 0.000000 0.501285
-8.925932 0.000000 0.501285
-3.053625 0.000000 0.501285
2.381449 0.000000 0.501285
-2.802331 0.000000 0.501285
2.758680 0.000000 0.501285
-2.692157 0.000000 0.501285
1.319219 0.000000 0.501285
2.660080 0.000000 0.501285
-3.692772 0.000000 0.501285
-7.952645 0.000000 0.501285
-8.925932 0.000000 0.501285
-3.053625 0.000000 0.501285
2.381449 0.000000 0.501285
-2.802331 0.000000 0.501285
2.758680 0.000000 0.501285
-2.692157 0.000000 0.501285
1.319219 0.000000 0.501285
2.660080 0.000000 0.501285
-3.692772 0.000000 0.501285
-7.952645 0.000000 0.501285
-8.925932 0.000000 0.501285
-3.053625 0.000000 0.501285
2.381449 0.000000 0.501285
-2.802331 0.000000 0.501285
2.758680 0.000000 0.501285
-2.692157 0.000000 0.501285
1.319219 0.000000 0.501285
2.660080 0.000000 0.501285
-3.692772 0.000000 0.501285
-7.952645 0.000000 0.501285
-8.925932 0.000000 0.501285
-3.053625 0.000000 0.501285
2.381449 0.000000 0.501285
-2.802331 0.000000 0.501285
2.758680 0.000000 0.501285
-2.692157 0.000000 0.501285
1.319219 0.000000 0.501285
2.660080 0.000000 0.501285
-3.692772 0.000000 0.501285
-7.952645 0.000000 0.501285
