# vtk DataFile Version 4.0
hesp visualization file
ASCII
DATASET UNSTRUCTURED_GRID
POINTS 10 double
1.000000 1.115492 1.002617
3.000000 1.115492 1.002617
5.000000 1.115492 1.002617
7.000000 1.115492 1.002617
9.000000 1.115492 1.002617
1.000000 8.884563 1.002617
3.000000 8.884563 1.002617
5.000000 8.884563 1.002617
7.000000 8.884563 1.002617
9.000000 8.884563 1.002617
CELLS 0 0
CELL_TYPES 0
POINT_DATA 10
SCALARS m double
LOOKUP_TABLE default
1.000000
1.000000
1.000000
1.000000
1.000000
1.000000
1.000000
1.000000
1.000000
1.000000
VECTORS v double
0.000000 5.000000 0.226612
0.000000 5.000000 0.226612
0.000000 5.000000 0.226612
0.000000 5.000000 0.226612
0.000000 5.000000 0.226612
0.000000 -5.000000 0.226612
0.000000 -5.000000 0.226612
0.000000 -5.000000 0.226612
0.000000 -5.000000 0.226612
0.000000 -5.000000 0.226612
