# vtk DataFile Version 4.0
hesp visualization file
ASCII
DATASET UNSTRUCTURED_GRID
POINTS 10 double
1.000000 1.315477 1.019530
3.000000 1.315477 1.019530
5.000000 1.315477 1.019530
7.000000 1.315477 1.019530
9.000000 1.315477 1.019530
1.000000 8.684673 1.019530
3.000000 8.684673 1.019530
5.000000 8.684673 1.019530
7.000000 8.684673 1.019530
9.000000 8.684673 1.019530
CELLS 0 0
CELL_TYPES 0
POINT_DATA 10
SCALARS m double
LOOKUP_TABLE default
1.000000
1.000000
1.000000
1.000000
1.000000
1.000000
1.000000
1.000000
1.000000
1.000000
VECTORS v double
0.000000 5.000000 0.619002
0.000000 5.000000 0.619002
0.000000 5.000000 0.619002
0.000000 5.000000 0.619002
0.000000 5.000000 0.619002
0.000000 -5.000000 0.619002
0.000000 -5.000000 0.619002
0.000000 -5.000000 0.619002
0.000000 -5.000000 0.619002
0.000000 -5.000000 0.619002
