# vtk DataFile Version 4.0
hesp visualization file
ASCII
DATASET UNSTRUCTURED_GRID
POINTS 6 double
5.000000 5.000000 9.002122
5.000000 5.000000 0.997922
0.997900 5.000000 5.000022
9.002103 5.000000 5.000022
5.000000 0.997900 5.000022
5.000000 9.002103 5.000022
CELLS 0 0
CELL_TYPES 0
POINT_DATA 6
SCALARS m double
LOOKUP_TABLE default
1.000000
1.000000
1.000000
1.000000
1.000000
1.000000
VECTORS v double
0.000000 0.000000 1.020603
0.000000 0.000000 -0.979400
-1.000000 0.000000 0.020601
1.000000 0.000000 0.020601
0.000000 -1.000000 0.020601
0.000000 1.000000 0.020601
