# vtk DataFile Version 4.0
hesp visualization file
ASCII
DATASET UNSTRUCTURED_GRID
POINTS 6 double
5.000000 5.000000 9.055078
5.000000 5.000000 0.964877
0.954893 5.000000 5.009977
9.045161 5.000000 5.009977
5.000000 0.954893 5.009977
5.000000 9.045161 5.009977
CELLS 0 0
CELL_TYPES 0
POINT_DATA 6
SCALARS m double
LOOKUP_TABLE default
1.000000
1.000000
1.000000
1.000000
1.000000
1.000000
VECTORS v double
0.000000 0.000000 1.442473
0.000000 0.000000 -0.557581
-1.000000 0.000000 0.442426
1.000000 0.000000 0.442426
0.000000 -1.000000 0.442426
0.000000 1.000000 0.442426
