# vtk DataFile Version 4.0
hesp visualization file
ASCII
DATASET UNSTRUCTURED_GRID
POINTS 6 double
5.000000 5.000000 9.029442
5.000000 5.000000 0.977241
0.973896 5.000000 5.003342
9.026135 5.000000 5.003342
5.000000 0.973896 5.003342
5.000000 9.026135 5.003342
CELLS 0 0
CELL_TYPES 0
POINT_DATA 6
SCALARS m double
LOOKUP_TABLE default
1.000000
1.000000
1.000000
1.000000
1.000000
1.000000
VECTORS v double
0.000000 0.000000 1.256065
0.000000 0.000000 -0.743966
-1.000000 0.000000 0.256041
1.000000 0.000000 0.256041
0.000000 -1.000000 0.256041
0.000000 1.000000 0.256041
