# vtk DataFile Version 4.0
hesp visualization file
ASCII
DATASET UNSTRUCTURED_GRID
POINTS 6 double
5.000000 5.000000 9.019707
5.000000 5.000000 0.983507
0.981897 5.000000 5.001607
9.018125 5.000000 5.001607
5.000000 0.981897 5.001607
5.000000 9.018125 5.001607
CELLS 0 0
CELL_TYPES 0
POINT_DATA 6
SCALARS m double
LOOKUP_TABLE default
1.000000
1.000000
1.000000
1.000000
1.000000
1.000000
VECTORS v double
0.000000 0.000000 1.177578
0.000000 0.000000 -0.822444
-1.000000 0.000000 0.177561
1.000000 0.000000 0.177561
0.000000 -1.000000 0.177561
0.000000 1.000000 0.177561
