# vtk DataFile Version 4.0
hesp visualization file
ASCII
DATASET UNSTRUCTURED_GRID
POINTS 6 double
5.000000 5.000000 9.018534
5.000000 5.000000 0.984334
0.982897 5.000000 5.001434
9.017123 5.000000 5.001434
5.000000 0.982897 5.001434
5.000000 9.017123 5.001434
CELLS 0 0
CELL_TYPES 0
POINT_DATA 6
SCALARS m double
LOOKUP_TABLE default
1.000000
1.000000
1.000000
1.000000
1.000000
1.000000
VECTORS v double
0.000000 0.000000 1.167767
0.000000 0.000000 -0.832254
-1.000000 0.000000 0.167751
1.000000 0.000000 0.167751
0.000000 -1.000000 0.167751
0.000000 1.000000 0.167751
