# vtk DataFile Version 4.0
hesp visualization file
ASCII
DATASET UNSTRUCTURED_GRID
POINTS 6 double
5.000000 5.000000 9.038475
5.000000 5.000000 0.972274
0.966895 5.000000 5.005374
9.033145 5.000000 5.005374
5.000000 0.966895 5.005374
5.000000 9.033145 5.005374
CELLS 0 0
CELL_TYPES 0
POINT_DATA 6
SCALARS m double
LOOKUP_TABLE default
1.000000
1.000000
1.000000
1.000000
1.000000
1.000000
VECTORS v double
0.000000 0.000000 1.324742
0.000000 0.000000 -0.675298
-1.000000 0.000000 0.324710
1.000000 0.000000 0.324710
0.000000 -1.000000 0.324710
0.000000 1.000000 0.324710
