# vtk DataFile Version 4.0
hesp visualization file
ASCII
DATASET UNSTRUCTURED_GRID
POINTS 6 double
5.000000 5.000000 9.071538
5.000000 5.000000 0.959337
0.943891 5.000000 5.015437
9.056176 5.000000 5.015437
5.000000 0.943891 5.015437
5.000000 9.056176 5.015437
CELLS 0 0
CELL_TYPES 0
POINT_DATA 6
SCALARS m double
LOOKUP_TABLE default
1.000000
1.000000
1.000000
1.000000
1.000000
1.000000
VECTORS v double
0.000000 0.000000 1.550393
0.000000 0.000000 -0.449674
-1.000000 0.000000 0.550333
1.000000 0.000000 0.550333
0.000000 -1.000000 0.550333
0.000000 1.000000 0.550333
