# vtk DataFile Version 4.0
hesp visualization file
ASCII
DATASET UNSTRUCTURED_GRID
POINTS 6 double
5.000000 5.000000 9.082632
5.000000 5.000000 0.956429
0.936890 5.000000 5.019530
9.063186 5.000000 5.019530
5.000000 0.936890 5.019530
5.000000 9.063186 5.019530
CELLS 0 0
CELL_TYPES 0
POINT_DATA 6
SCALARS m double
LOOKUP_TABLE default
1.000000
1.000000
1.000000
1.000000
1.000000
1.000000
VECTORS v double
0.000000 0.000000 1.619069
0.000000 0.000000 -0.381006
-1.000000 0.000000 0.619002
1.000000 0.000000 0.619002
0.000000 -1.000000 0.619002
0.000000 1.000000 0.619002
