# vtk DataFile Version 4.0
hesp visualization file
ASCII
DATASET UNSTRUCTURED_GRID
POINTS 6 double
5.000000 5.000000 9.004183
5.000000 5.000000 0.995982
0.995899 5.000000 5.000082
9.004106 5.000000 5.000082
5.000000 0.995899 5.000082
5.000000 9.004106 5.000082
CELLS 0 0
CELL_TYPES 0
POINT_DATA 6
SCALARS m double
LOOKUP_TABLE default
1.000000
1.000000
1.000000
1.000000
1.000000
1.000000
VECTORS v double
0.000000 0.000000 1.040225
0.000000 0.000000 -0.959780
-1.000000 0.000000 0.040221
1.000000 0.000000 0.040221
0.000000 -1.000000 0.040221
0.000000 1.000000 0.040221
