# vtk DataFile Version 4.0
hesp visualization file
ASCII
DATASET UNSTRUCTURED_GRID
POINTS 6 double
5.000000 5.000000 9.077819
5.000000 5.000000 0.957616
0.939890 5.000000 5.017717
9.060182 5.000000 5.017717
5.000000 0.939890 5.017717
5.000000 9.060182 5.017717
CELLS 0 0
CELL_TYPES 0
POINT_DATA 6
SCALARS m double
LOOKUP_TABLE default
1.000000
1.000000
1.000000
1.000000
1.000000
1.000000
VECTORS v double
0.000000 0.000000 1.589637
0.000000 0.000000 -0.410435
-1.000000 0.000000 0.589572
1.000000 0.000000 0.589572
0.000000 -1.000000 0.589572
0.000000 1.000000 0.589572
