# vtk DataFile Version 4.0
hesp visualization file
ASCII
DATASET UNSTRUCTURED_GRID
POINTS 6 double
5.000000 5.000000 9.099313
5.000000 5.000000 0.953110
0.926888 5.000000 5.026210
9.073199 5.000000 5.026210
5.000000 0.926888 5.026210
5.000000 9.073199 5.026210
CELLS 0 0
CELL_TYPES 0
POINT_DATA 6
SCALARS m double
LOOKUP_TABLE default
1.000000
1.000000
1.000000
1.000000
1.000000
1.000000
VECTORS v double
0.000000 0.000000 1.717179
0.000000 0.000000 -0.282909
-1.000000 0.000000 0.717099
1.000000 0.000000 0.717099
0.000000 -1.000000 0.717099
0.000000 1.000000 0.717099
