# vtk DataFile Version 4.0
hesp visualization file
ASCII
DATASET UNSTRUCTURED_GRID
POINTS 6 double
5.000000 5.000000 9.035845
5.000000 5.000000 0.973644
0.968895 5.000000 5.004745
9.031142 5.000000 5.004745
5.000000 0.968895 5.004745
5.000000 9.031142 5.004745
CELLS 0 0
CELL_TYPES 0
POINT_DATA 6
SCALARS m double
LOOKUP_TABLE default
1.000000
1.000000
1.000000
1.000000
1.000000
1.000000
VECTORS v double
0.000000 0.000000 1.305120
0.000000 0.000000 -0.694917
-1.000000 0.000000 0.305090
1.000000 0.000000 0.305090
0.000000 -1.000000 0.305090
0.000000 1.000000 0.305090
