# vtk DataFile Version 4.0
hesp visualization file
ASCII
DATASET UNSTRUCTURED_GRID
POINTS 6 double
5.000000 5.000000 9.007347
5.000000 5.000000 0.993147
0.992899 5.000000 5.000247
9.007110 5.000000 5.000247
5.000000 0.992899 5.000247
5.000000 9.007110 5.000247
CELLS 0 0
CELL_TYPES 0
POINT_DATA 6
SCALARS m double
LOOKUP_TABLE default
1.000000
1.000000
1.000000
1.000000
1.000000
1.000000
VECTORS v double
0.000000 0.000000 1.069658
0.000000 0.000000 -0.930351
-1.000000 0.000000 0.069651
1.000000 0.000000 0.069651
0.000000 -1.000000 0.069651
0.000000 1.000000 0.069651
