# vtk DataFile Version 4.0
hesp visualization file
ASCII
DATASET UNSTRUCTURED_GRID
POINTS 6 double
5.000000 5.000000 9.122465
5.000000 5.000000 0.950261
0.913886 5.000000 5.036362
9.086217 5.000000 5.036362
5.000000 0.913886 5.036362
5.000000 9.086217 5.036362
CELLS 0 0
CELL_TYPES 0
POINT_DATA 6
SCALARS m double
LOOKUP_TABLE default
1.000000
1.000000
1.000000
1.000000
1.000000
1.000000
VECTORS v double
0.000000 0.000000 1.844721
0.000000 0.000000 -0.155379
-1.000000 0.000000 0.844625
1.000000 0.000000 0.844625
0.000000 -1.000000 0.844625
0.000000 1.000000 0.844625
