# vtk DataFile Version 4.0
hesp visualization file
ASCII
DATASET UNSTRUCTURED_GRID
POINTS 6 double
5.000000 5.000000 9.033255
5.000000 5.000000 0.975053
0.970895 5.000000 5.004154
9.029140 5.000000 5.004154
5.000000 0.970895 5.004154
5.000000 9.029140 5.004154
CELLS 0 0
CELL_TYPES 0
POINT_DATA 6
SCALARS m double
LOOKUP_TABLE default
1.000000
1.000000
1.000000
1.000000
1.000000
1.000000
VECTORS v double
0.000000 0.000000 1.285498
0.000000 0.000000 -0.714537
-1.000000 0.000000 0.285471
1.000000 0.000000 0.285471
0.000000 -1.000000 0.285471
0.000000 1.000000 0.285471
