# vtk DataFile Version 4.0
hesp visualization file
ASCII
DATASET UNSTRUCTURED_GRID
POINTS 6 double
5.000000 5.000000 9.145308
5.000000 5.000000 0.949102
0.901884 5.000000 5.047204
9.098233 5.000000 5.047204
5.000000 0.901884 5.047204
5.000000 9.098233 5.047204
CELLS 0 0
CELL_TYPES 0
POINT_DATA 6
SCALARS m double
LOOKUP_TABLE default
1.000000
1.000000
1.000000
1.000000
1.000000
1.000000
VECTORS v double
0.000000 0.000000 1.962452
0.000000 0.000000 -0.037659
-1.000000 0.000000 0.962342
1.000000 0.000000 0.962342
0.000000 -1.000000 0.962342
0.000000 1.000000 0.962342
