# vtk DataFile Version 4.0
hesp visualization file
ASCII
DATASET UNSTRUCTURED_GRID
POINTS 6 double
5.000000 5.000000 9.087533
5.000000 5.000000 0.955330
0.933889 5.000000 5.021431
9.066190 5.000000 5.021431
5.000000 0.933889 5.021431
5.000000 9.066190 5.021431
CELLS 0 0
CELL_TYPES 0
POINT_DATA 6
SCALARS m double
LOOKUP_TABLE default
1.000000
1.000000
1.000000
1.000000
1.000000
1.000000
VECTORS v double
0.000000 0.000000 1.648502
0.000000 0.000000 -0.351577
-1.000000 0.000000 0.648431
1.000000 0.000000 0.648431
0.000000 -1.000000 0.648431
0.000000 1.000000 0.648431
