# vtk DataFile Version 4.0
hesp visualization file
ASCII
DATASET UNSTRUCTURED_GRID
POINTS 6 double
5.000000 5.000000 9.073093
5.000000 5.000000 0.958892
0.942891 5.000000 5.015992
9.057178 5.000000 5.015992
5.000000 0.942891 5.015992
5.000000 9.057178 5.015992
CELLS 0 0
CELL_TYPES 0
POINT_DATA 6
SCALARS m double
LOOKUP_TABLE default
1.000000
1.000000
1.000000
1.000000
1.000000
1.000000
VECTORS v double
0.000000 0.000000 1.560204
0.000000 0.000000 -0.439864
-1.000000 0.000000 0.560143
1.000000 0.000000 0.560143
0.000000 -1.000000 0.560143
0.000000 1.000000 0.560143
