# vtk DataFile Version 4.0
hesp visualization file
ASCII
DATASET UNSTRUCTURED_GRID
POINTS 6 double
5.000000 5.000000 9.056525
5.000000 5.000000 0.964324
0.953892 5.000000 5.010425
9.046163 5.000000 5.010425
5.000000 0.953892 5.010425
5.000000 9.046163 5.010425
CELLS 0 0
CELL_TYPES 0
POINT_DATA 6
SCALARS m double
LOOKUP_TABLE default
1.000000
1.000000
1.000000
1.000000
1.000000
1.000000
VECTORS v double
0.000000 0.000000 1.452284
0.000000 0.000000 -0.547771
-1.000000 0.000000 0.452236
1.000000 0.000000 0.452236
0.000000 -1.000000 0.452236
0.000000 1.000000 0.452236
