# vtk DataFile Version 4.0
hesp visualization file
ASCII
DATASET UNSTRUCTURED_GRID
POINTS 6 double
5.000000 5.000000 9.133710
5.000000 5.000000 0.949505
0.907885 5.000000 5.041606
9.092225 5.000000 5.041606
5.000000 0.907885 5.041606
5.000000 9.092225 5.041606
CELLS 0 0
CELL_TYPES 0
POINT_DATA 6
SCALARS m double
LOOKUP_TABLE default
1.000000
1.000000
1.000000
1.000000
1.000000
1.000000
VECTORS v double
0.000000 0.000000 1.903586
0.000000 0.000000 -0.096519
-1.000000 0.000000 0.903484
1.000000 0.000000 0.903484
0.000000 -1.000000 0.903484
0.000000 1.000000 0.903484
