# vtk DataFile Version 4.0
hesp visualization file
ASCII
DATASET UNSTRUCTURED_GRID
POINTS 6 double
5.000000 5.000000 9.115165
5.000000 5.000000 0.950961
0.917886 5.000000 5.033062
9.082211 5.000000 5.033062
5.000000 0.917886 5.033062
5.000000 9.082211 5.033062
CELLS 0 0
CELL_TYPES 0
POINT_DATA 6
SCALARS m double
LOOKUP_TABLE default
1.000000
1.000000
1.000000
1.000000
1.000000
1.000000
VECTORS v double
0.000000 0.000000 1.805477
0.000000 0.000000 -0.194619
-1.000000 0.000000 0.805387
1.000000 0.000000 0.805387
0.000000 -1.000000 0.805387
0.000000 1.000000 0.805387
