# vtk DataFile Version 4.0
hesp visualization file
ASCII
DATASET UNSTRUCTURED_GRID
POINTS 6 double
5.000000 5.000000 9.015075
5.000000 5.000000 0.986875
0.985898 5.000000 5.000975
9.014119 5.000000 5.000975
5.000000 0.985898 5.000975
5.000000 9.014119 5.000975
CELLS 0 0
CELL_TYPES 0
POINT_DATA 6
SCALARS m double
LOOKUP_TABLE default
1.000000
1.000000
1.000000
1.000000
1.000000
1.000000
VECTORS v double
0.000000 0.000000 1.138334
0.000000 0.000000 -0.861683
-1.000000 0.000000 0.138321
1.000000 0.000000 0.138321
0.000000 -1.000000 0.138321
0.000000 1.000000 0.138321
