# vtk DataFile Version 4.0
hesp visualization file
ASCII
DATASET UNSTRUCTURED_GRID
POINTS 6 double
5.000000 5.000000 9.011704
5.000000 5.000000 0.989504
0.988898 5.000000 5.000605
9.011115 5.000000 5.000605
5.000000 0.988898 5.000605
5.000000 9.011115 5.000605
CELLS 0 0
CELL_TYPES 0
POINT_DATA 6
SCALARS m double
LOOKUP_TABLE default
1.000000
1.000000
1.000000
1.000000
1.000000
1.000000
VECTORS v double
0.000000 0.000000 1.108901
0.000000 0.000000 -0.891112
-1.000000 0.000000 0.108891
1.000000 0.000000 0.108891
0.000000 -1.000000 0.108891
0.000000 1.000000 0.108891
