# vtk DataFile Version 4.0
hesp visualization file
ASCII
DATASET UNSTRUCTURED_GRID
POINTS 6 double
5.000000 5.000000 9.039804
5.000000 5.000000 0.971603
0.965894 5.000000 5.005704
9.034146 5.000000 5.005704
5.000000 0.965894 5.005704
5.000000 9.034146 5.005704
CELLS 0 0
CELL_TYPES 0
POINT_DATA 6
SCALARS m double
LOOKUP_TABLE default
1.000000
1.000000
1.000000
1.000000
1.000000
1.000000
VECTORS v double
0.000000 0.000000 1.334553
0.000000 0.000000 -0.665488
-1.000000 0.000000 0.334519
1.000000 0.000000 0.334519
0.000000 -1.000000 0.334519
0.000000 1.000000 0.334519
