# vtk DataFile Version 4.0
hesp visualization file
ASCII
DATASET UNSTRUCTURED_GRID
POINTS 6 double
5.000000 5.000000 9.124314
5.000000 5.000000 0.950110
0.912886 5.000000 5.037211
9.087218 5.000000 5.037211
5.000000 0.912886 5.037211
5.000000 9.087218 5.037211
CELLS 0 0
CELL_TYPES 0
POINT_DATA 6
SCALARS m double
LOOKUP_TABLE default
1.000000
1.000000
1.000000
1.000000
1.000000
1.000000
VECTORS v double
0.000000 0.000000 1.854532
0.000000 0.000000 -0.145569
-1.000000 0.000000 0.854435
1.000000 0.000000 0.854435
0.000000 -1.000000 0.854435
0.000000 1.000000 0.854435
