# vtk DataFile Version 4.0
hesp visualization file
ASCII
DATASET UNSTRUCTURED_GRID
POINTS 6 double
5.000000 5.000000 9.010600
5.000000 5.000000 0.990400
0.989898 5.000000 5.000501
9.010114 5.000000 5.000501
5.000000 0.989898 5.000501
5.000000 9.010114 5.000501
CELLS 0 0
CELL_TYPES 0
POINT_DATA 6
SCALARS m double
LOOKUP_TABLE default
1.000000
1.000000
1.000000
1.000000
1.000000
1.000000
VECTORS v double
0.000000 0.000000 1.099090
0.000000 0.000000 -0.900922
-1.000000 0.000000 0.099081
1.000000 0.000000 0.099081
0.000000 -1.000000 0.099081
0.000000 1.000000 0.099081
