# vtk DataFile Version 4.0
hesp visualization file
ASCII
DATASET UNSTRUCTURED_GRID
POINTS 6 double
5.000000 5.000000 9.104508
5.000000 5.000000 0.952305
0.923887 5.000000 5.028406
9.076203 5.000000 5.028406
5.000000 0.923887 5.028406
5.000000 9.076203 5.028406
CELLS 0 0
CELL_TYPES 0
POINT_DATA 6
SCALARS m double
LOOKUP_TABLE default
1.000000
1.000000
1.000000
1.000000
1.000000
1.000000
VECTORS v double
0.000000 0.000000 1.746611
0.000000 0.000000 -0.253479
-1.000000 0.000000 0.746528
1.000000 0.000000 0.746528
0.000000 -1.000000 0.746528
0.000000 1.000000 0.746528
