# vtk DataFile Version 4.0
hesp visualization file
ASCII
DATASET UNSTRUCTURED_GRID
POINTS 6 double
5.000000 5.000000 9.120625
5.000000 5.000000 0.950421
0.914886 5.000000 5.035522
9.085216 5.000000 5.035522
5.000000 0.914886 5.035522
5.000000 9.085216 5.035522
CELLS 0 0
CELL_TYPES 0
POINT_DATA 6
SCALARS m double
LOOKUP_TABLE default
1.000000
1.000000
1.000000
1.000000
1.000000
1.000000
VECTORS v double
0.000000 0.000000 1.834910
0.000000 0.000000 -0.165189
-1.000000 0.000000 0.834816
1.000000 0.000000 0.834816
0.000000 -1.000000 0.834816
0.000000 1.000000 0.834816
