# vtk DataFile Version 4.0
hesp visualization file
ASCII
DATASET UNSTRUCTURED_GRID
POINTS 6 double
5.000000 5.000000 9.102767
5.000000 5.000000 0.952563
0.924888 5.000000 5.027664
9.075202 5.000000 5.027664
5.000000 0.924888 5.027664
5.000000 9.075202 5.027664
CELLS 0 0
CELL_TYPES 0
POINT_DATA 6
SCALARS m double
LOOKUP_TABLE default
1.000000
1.000000
1.000000
1.000000
1.000000
1.000000
VECTORS v double
0.000000 0.000000 1.736800
0.000000 0.000000 -0.263289
-1.000000 0.000000 0.736718
1.000000 0.000000 0.736718
0.000000 -1.000000 0.736718
0.000000 1.000000 0.736718
