# vtk DataFile Version 4.0
hesp visualization file
ASCII
DATASET UNSTRUCTURED_GRID
POINTS 6 double
5.000000 5.000000 9.116975
5.000000 5.000000 0.950771
0.916886 5.000000 5.033872
9.083213 5.000000 5.033872
5.000000 0.916886 5.033872
5.000000 9.083213 5.033872
CELLS 0 0
CELL_TYPES 0
POINT_DATA 6
SCALARS m double
LOOKUP_TABLE default
1.000000
1.000000
1.000000
1.000000
1.000000
1.000000
VECTORS v double
0.000000 0.000000 1.815288
0.000000 0.000000 -0.184809
-1.000000 0.000000 0.815196
1.000000 0.000000 0.815196
0.000000 -1.000000 0.815196
0.000000 1.000000 0.815196
