# vtk DataFile Version 4.0
hesp visualization file
ASCII
DATASET UNSTRUCTURED_GRID
POINTS 6 double
5.000000 5.000000 9.013942
5.000000 5.000000 0.987742
0.986898 5.000000 5.000842
9.013118 5.000000 5.000842
5.000000 0.986898 5.000842
5.000000 9.013118 5.000842
CELLS 0 0
CELL_TYPES 0
POINT_DATA 6
SCALARS m double
LOOKUP_TABLE default
1.000000
1.000000
1.000000
1.000000
1.000000
1.000000
VECTORS v double
0.000000 0.000000 1.128523
0.000000 0.000000 -0.871493
-1.000000 0.000000 0.128511
1.000000 0.000000 0.128511
0.000000 -1.000000 0.128511
0.000000 1.000000 0.128511
