# vtk DataFile Version 4.0
hesp visualization file
ASCII
DATASET UNSTRUCTURED_GRID
POINTS 6 double
5.000000 5.000000 9.049387
5.000000 5.000000 0.967185
0.958893 5.000000 5.008286
9.041156 5.000000 5.008286
5.000000 0.958893 5.008286
5.000000 9.041156 5.008286
CELLS 0 0
CELL_TYPES 0
POINT_DATA 6
SCALARS m double
LOOKUP_TABLE default
1.000000
1.000000
1.000000
1.000000
1.000000
1.000000
VECTORS v double
0.000000 0.000000 1.403229
0.000000 0.000000 -0.596820
-1.000000 0.000000 0.403187
1.000000 0.000000 0.403187
0.000000 -1.000000 0.403187
0.000000 1.000000 0.403187
