# vtk DataFile Version 4.0
hesp visualization file
ASCII
DATASET UNSTRUCTURED_GRID
POINTS 6 double
5.000000 5.000000 9.131811
5.000000 5.000000 0.949606
0.908885 5.000000 5.040707
9.091224 5.000000 5.040707
5.000000 0.908885 5.040707
5.000000 9.091224 5.040707
CELLS 0 0
CELL_TYPES 0
POINT_DATA 6
SCALARS m double
LOOKUP_TABLE default
1.000000
1.000000
1.000000
1.000000
1.000000
1.000000
VECTORS v double
0.000000 0.000000 1.893775
0.000000 0.000000 -0.106329
-1.000000 0.000000 0.893674
1.000000 0.000000 0.893674
0.000000 -1.000000 0.893674
0.000000 1.000000 0.893674
