# vtk DataFile Version 4.0
hesp visualization file
ASCII
DATASET UNSTRUCTURED_GRID
POINTS 6 double
5.000000 5.000000 9.057982
5.000000 5.000000 0.963781
0.952892 5.000000 5.010882
9.047164 5.000000 5.010882
5.000000 0.952892 5.010882
5.000000 9.047164 5.010882
CELLS 0 0
CELL_TYPES 0
POINT_DATA 6
SCALARS m double
LOOKUP_TABLE default
1.000000
1.000000
1.000000
1.000000
1.000000
1.000000
VECTORS v double
0.000000 0.000000 1.462095
0.000000 0.000000 -0.537962
-1.000000 0.000000 0.462046
1.000000 0.000000 0.462046
0.000000 -1.000000 0.462046
0.000000 1.000000 0.462046
