# vtk DataFile Version 4.0
hesp visualization file
ASCII
DATASET UNSTRUCTURED_GRID
POINTS 6 double
5.000000 5.000000 9.129922
5.000000 5.000000 0.949718
0.909885 5.000000 5.039819
9.090222 5.000000 5.039819
5.000000 0.909885 5.039819
5.000000 9.090222 5.039819
CELLS 0 0
CELL_TYPES 0
POINT_DATA 6
SCALARS m double
LOOKUP_TABLE default
1.000000
1.000000
1.000000
1.000000
1.000000
1.000000
VECTORS v double
0.000000 0.000000 1.883964
0.000000 0.000000 -0.116139
-1.000000 0.000000 0.883864
1.000000 0.000000 0.883864
0.000000 -1.000000 0.883864
0.000000 1.000000 0.883864
