# vtk DataFile Version 4.0
hesp visualization file
ASCII
DATASET UNSTRUCTURED_GRID
POINTS 6 double
5.000000 5.000000 9.095899
5.000000 5.000000 0.953695
0.928888 5.000000 5.024796
9.071197 5.000000 5.024796
5.000000 0.928888 5.024796
5.000000 9.071197 5.024796
CELLS 0 0
CELL_TYPES 0
POINT_DATA 6
SCALARS m double
LOOKUP_TABLE default
1.000000
1.000000
1.000000
1.000000
1.000000
1.000000
VECTORS v double
0.000000 0.000000 1.697557
0.000000 0.000000 -0.302528
-1.000000 0.000000 0.697479
1.000000 0.000000 0.697479
0.000000 -1.000000 0.697479
0.000000 1.000000 0.697479
