# vtk DataFile Version 4.0
hesp visualization file
ASCII
DATASET UNSTRUCTURED_GRID
POINTS 6 double
5.000000 5.000000 9.074658
5.000000 5.000000 0.958457
0.941890 5.000000 5.016557
9.058179 5.000000 5.016557
5.000000 0.941890 5.016557
5.000000 9.058179 5.016557
CELLS 0 0
CELL_TYPES 0
POINT_DATA 6
SCALARS m double
LOOKUP_TABLE default
1.000000
1.000000
1.000000
1.000000
1.000000
1.000000
VECTORS v double
0.000000 0.000000 1.570015
0.000000 0.000000 -0.430055
-1.000000 0.000000 0.569953
1.000000 0.000000 0.569953
0.000000 -1.000000 0.569953
0.000000 1.000000 0.569953
