# vtk DataFile Version 4.0
hesp visualization file
ASCII
DATASET UNSTRUCTURED_GRID
POINTS 6 double
5.000000 5.000000 9.141403
5.000000 5.000000 0.949197
0.903884 5.000000 5.045299
9.096231 5.000000 5.045299
5.000000 0.903884 5.045299
5.000000 9.096231 5.045299
CELLS 0 0
CELL_TYPES 0
POINT_DATA 6
SCALARS m double
LOOKUP_TABLE default
1.000000
1.000000
1.000000
1.000000
1.000000
1.000000
VECTORS v double
0.000000 0.000000 1.942830
0.000000 0.000000 -0.057279
-1.000000 0.000000 0.942723
1.000000 0.000000 0.942723
0.000000 -1.000000 0.942723
0.000000 1.000000 0.942723
