# vtk DataFile Version 4.0
hesp visualization file
ASCII
DATASET UNSTRUCTURED_GRID
POINTS 6 double
5.000000 5.000000 9.090850
5.000000 5.000000 0.954647
0.931889 5.000000 5.022748
9.068192 5.000000 5.022748
5.000000 0.931889 5.022748
5.000000 9.068192 5.022748
CELLS 0 0
CELL_TYPES 0
POINT_DATA 6
SCALARS m double
LOOKUP_TABLE default
1.000000
1.000000
1.000000
1.000000
1.000000
1.000000
VECTORS v double
0.000000 0.000000 1.668124
0.000000 0.000000 -0.331957
-1.000000 0.000000 0.668050
1.000000 0.000000 0.668050
0.000000 -1.000000 0.668050
0.000000 1.000000 0.668050
