# vtk DataFile Version 4.0
hesp visualization file
ASCII
DATASET UNSTRUCTURED_GRID
POINTS 6 double
5.000000 5.000000 9.041144
5.000000 5.000000 0.970943
0.964894 5.000000 5.006043
9.035148 5.000000 5.006043
5.000000 0.964894 5.006043
5.000000 9.035148 5.006043
CELLS 0 0
CELL_TYPES 0
POINT_DATA 6
SCALARS m double
LOOKUP_TABLE default
1.000000
1.000000
1.000000
1.000000
1.000000
1.000000
VECTORS v double
0.000000 0.000000 1.344363
0.000000 0.000000 -0.655678
-1.000000 0.000000 0.344329
1.000000 0.000000 0.344329
0.000000 -1.000000 0.344329
0.000000 1.000000 0.344329
