# vtk DataFile Version 4.0
hesp visualization file
ASCII
DATASET UNSTRUCTURED_GRID
POINTS 6 double
5.000000 5.000000 9.028191
5.000000 5.000000 0.977990
0.974896 5.000000 5.003090
9.025134 5.000000 5.003090
5.000000 0.974896 5.003090
5.000000 9.025134 5.003090
CELLS 0 0
CELL_TYPES 0
POINT_DATA 6
SCALARS m double
LOOKUP_TABLE default
1.000000
1.000000
1.000000
1.000000
1.000000
1.000000
VECTORS v double
0.000000 0.000000 1.246254
0.000000 0.000000 -0.753776
-1.000000 0.000000 0.246232
1.000000 0.000000 0.246232
0.000000 -1.000000 0.246232
0.000000 1.000000 0.246232
