# vtk DataFile Version 4.0
hesp visualization file
ASCII
DATASET UNSTRUCTURED_GRID
POINTS 6 double
5.000000 5.000000 9.034545
5.000000 5.000000 0.974344
0.969895 5.000000 5.004445
9.030141 5.000000 5.004445
5.000000 0.969895 5.004445
5.000000 9.030141 5.004445
CELLS 0 0
CELL_TYPES 0
POINT_DATA 6
SCALARS m double
LOOKUP_TABLE default
1.000000
1.000000
1.000000
1.000000
1.000000
1.000000
VECTORS v double
0.000000 0.000000 1.295309
0.000000 0.000000 -0.704727
-1.000000 0.000000 0.295280
1.000000 0.000000 0.295280
0.000000 -1.000000 0.295280
0.000000 1.000000 0.295280
