# vtk DataFile Version 4.0
hesp visualization file
ASCII
DATASET UNSTRUCTURED_GRID
POINTS 6 double
5.000000 5.000000 9.106260
5.000000 5.000000 0.952056
0.922887 5.000000 5.029157
9.077205 5.000000 5.029157
5.000000 0.922887 5.029157
5.000000 9.077205 5.029157
CELLS 0 0
CELL_TYPES 0
POINT_DATA 6
SCALARS m double
LOOKUP_TABLE default
1.000000
1.000000
1.000000
1.000000
1.000000
1.000000
VECTORS v double
0.000000 0.000000 1.756422
0.000000 0.000000 -0.243669
-1.000000 0.000000 0.756338
1.000000 0.000000 0.756338
0.000000 -1.000000 0.756338
0.000000 1.000000 0.756338
