# vtk DataFile Version 4.0
hesp visualization file
ASCII
DATASET UNSTRUCTURED_GRID
POINTS 6 double
5.000000 5.000000 9.128043
5.000000 5.000000 0.949839
0.910885 5.000000 5.038940
9.089221 5.000000 5.038940
5.000000 0.910885 5.038940
5.000000 9.089221 5.038940
CELLS 0 0
CELL_TYPES 0
POINT_DATA 6
SCALARS m double
LOOKUP_TABLE default
1.000000
1.000000
1.000000
1.000000
1.000000
1.000000
VECTORS v double
0.000000 0.000000 1.874153
0.000000 0.000000 -0.125949
-1.000000 0.000000 0.874055
1.000000 0.000000 0.874055
0.000000 -1.000000 0.874055
0.000000 1.000000 0.874055
