# vtk DataFile Version 4.0
hesp visualization file
ASCII
DATASET UNSTRUCTURED_GRID
POINTS 6 double
5.000000 5.000000 9.059449
5.000000 5.000000 0.963248
0.951892 5.000000 5.011349
9.048165 5.000000 5.011349
5.000000 0.951892 5.011349
5.000000 9.048165 5.011349
CELLS 0 0
CELL_TYPES 0
POINT_DATA 6
SCALARS m double
LOOKUP_TABLE default
1.000000
1.000000
1.000000
1.000000
1.000000
1.000000
VECTORS v double
0.000000 0.000000 1.471905
0.000000 0.000000 -0.528152
-1.000000 0.000000 0.471856
1.000000 0.000000 0.471856
0.000000 -1.000000 0.471856
0.000000 1.000000 0.471856
