# vtk DataFile Version 4.0
hesp visualization file
ASCII
DATASET UNSTRUCTURED_GRID
POINTS 6 double
5.000000 5.000000 9.024496
5.000000 5.000000 0.980296
0.977896 5.000000 5.002396
9.022130 5.000000 5.002396
5.000000 0.977896 5.002396
5.000000 9.022130 5.002396
CELLS 0 0
CELL_TYPES 0
POINT_DATA 6
SCALARS m double
LOOKUP_TABLE default
1.000000
1.000000
1.000000
1.000000
1.000000
1.000000
VECTORS v double
0.000000 0.000000 1.216821
0.000000 0.000000 -0.783205
-1.000000 0.000000 0.216802
1.000000 0.000000 0.216802
0.000000 -1.000000 0.216802
0.000000 1.000000 0.216802
