# vtk DataFile Version 4.0
hesp visualization file
ASCII
DATASET UNSTRUCTURED_GRID
POINTS 6 double
5.000000 5.000000 9.012818
5.000000 5.000000 0.988618
0.987898 5.000000 5.000719
9.012116 5.000000 5.000719
5.000000 0.987898 5.000719
5.000000 9.012116 5.000719
CELLS 0 0
CELL_TYPES 0
POINT_DATA 6
SCALARS m double
LOOKUP_TABLE default
1.000000
1.000000
1.000000
1.000000
1.000000
1.000000
VECTORS v double
0.000000 0.000000 1.118712
0.000000 0.000000 -0.881302
-1.000000 0.000000 0.118701
1.000000 0.000000 0.118701
0.000000 -1.000000 0.118701
0.000000 1.000000 0.118701
