# vtk DataFile Version 4.0
hesp visualization file
ASCII
DATASET UNSTRUCTURED_GRID
POINTS 6 double
5.000000 5.000000 9.047989
5.000000 5.000000 0.967787
0.959893 5.000000 5.007887
9.040154 5.000000 5.007887
5.000000 0.959893 5.007887
5.000000 9.040154 5.007887
CELLS 0 0
CELL_TYPES 0
POINT_DATA 6
SCALARS m double
LOOKUP_TABLE default
1.000000
1.000000
1.000000
1.000000
1.000000
1.000000
VECTORS v double
0.000000 0.000000 1.393418
0.000000 0.000000 -0.606630
-1.000000 0.000000 0.393378
1.000000 0.000000 0.393378
0.000000 -1.000000 0.393378
0.000000 1.000000 0.393378
