# vtk DataFile Version 4.0
hesp visualization file
ASCII
DATASET UNSTRUCTURED_GRID
POINTS 6 double
5.000000 5.000000 9.017371
5.000000 5.000000 0.985171
0.983897 5.000000 5.001272
9.016122 5.000000 5.001272
5.000000 0.983897 5.001272
5.000000 9.016122 5.001272
CELLS 0 0
CELL_TYPES 0
POINT_DATA 6
SCALARS m double
LOOKUP_TABLE default
1.000000
1.000000
1.000000
1.000000
1.000000
1.000000
VECTORS v double
0.000000 0.000000 1.157956
0.000000 0.000000 -0.842063
-1.000000 0.000000 0.157941
1.000000 0.000000 0.157941
0.000000 -1.000000 0.157941
0.000000 1.000000 0.157941
