# vtk DataFile Version 4.0
hesp visualization file
ASCII
DATASET UNSTRUCTURED_GRID
POINTS 6 double
5.000000 5.000000 9.030703
5.000000 5.000000 0.976502
0.972896 5.000000 5.003603
9.027137 5.000000 5.003603
5.000000 0.972896 5.003603
5.000000 9.027137 5.003603
CELLS 0 0
CELL_TYPES 0
POINT_DATA 6
SCALARS m double
LOOKUP_TABLE default
1.000000
1.000000
1.000000
1.000000
1.000000
1.000000
VECTORS v double
0.000000 0.000000 1.265876
0.000000 0.000000 -0.734156
-1.000000 0.000000 0.265851
1.000000 0.000000 0.265851
0.000000 -1.000000 0.265851
0.000000 1.000000 0.265851
