# vtk DataFile Version 4.0
hesp visualization file
ASCII
DATASET UNSTRUCTURED_GRID
POINTS 10 double
0.060100 0.053415 -0.000000
0.060100 0.973904 -0.000000
0.060100 2.108947 0.000011
0.060100 2.971508 0.001018
0.060100 3.952331 0.059071
9.939818 0.038838 -0.000000
9.939818 0.915271 -0.000000
9.939818 2.006896 -0.000000
9.939818 3.016751 -0.000000
9.939818 3.902044 -0.000000
CELLS 0 0
CELL_TYPES 0
POINT_DATA 10
SCALARS m double
LOOKUP_TABLE default
1.000000
1.000000
1.000000
1.000000
1.000000
2.000000
2.000000
2.000000
2.000000
2.000000
VECTORS v double
1.000000 2.331078 -0.000001
1.000000 -1.673858 -0.000008
1.000000 4.416510 0.001852
1.000000 -2.363928 0.053320
1.000000 -1.709804 0.944837
-1.000000 1.977956 -0.000000
-1.000000 -2.612555 -0.000000
-1.000000 0.321428 -0.000000
-1.000000 1.173701 -0.000000
-1.000000 -2.860528 -0.000000
