# vtk DataFile Version 4.0
hesp visualization file
ASCII
DATASET UNSTRUCTURED_GRID
POINTS 10 double
0.500997 5609796.000000 0.000000
0.500997 -5609795.000000 0.000000
0.500997 2.000000 0.000000
0.500997 5351963.000000 0.000000
0.500997 -5351956.000000 0.000000
9.498797 4168.936035 0.000000
9.498797 -91572.218750 0.000000
9.498797 2.000000 0.000000
9.498797 4192.705566 0.000000
9.498797 83218.851562 0.000000
CELLS 0 0
CELL_TYPES 0
POINT_DATA 10
SCALARS m double
LOOKUP_TABLE default
1.000000
1.000000
1.000000
1.000000
1.000000
2.000000
2.000000
2.000000
2.000000
2.000000
VECTORS v double
1.000000 13749493.000000 0.000000
1.000000 -13749492.000000 0.000000
1.000000 0.000039 0.000000
1.000000 13117609.000000 0.000000
1.000000 -13117611.000000 0.000000
-1.000000 11266.445312 0.000000
-1.000000 -277744.687500 0.000000
-1.000000 -0.000004 0.000000
-1.000000 11322.829102 0.000000
-1.000000 255155.406250 0.000000
