# vtk DataFile Version 4.0
hesp visualization file
ASCII
DATASET UNSTRUCTURED_GRID
POINTS 10 double
0.600996 6984746.000000 0.000000
0.600996 -6984745.000000 0.000000
0.600996 2.000000 0.000000
0.600996 6663713.000000 0.000000
0.600996 -6663706.000000 0.000000
9.398757 5295.596191 0.000000
9.398757 -119346.437500 0.000000
9.398757 2.000000 0.000000
9.398757 5324.980957 0.000000
9.398757 108734.476562 0.000000
CELLS 0 0
CELL_TYPES 0
POINT_DATA 10
SCALARS m double
LOOKUP_TABLE default
1.000000
1.000000
1.000000
1.000000
1.000000
2.000000
2.000000
2.000000
2.000000
2.000000
VECTORS v double
1.000000 13749493.000000 0.000000
1.000000 -13749492.000000 0.000000
1.000000 0.000039 0.000000
1.000000 13117609.000000 0.000000
1.000000 -13117611.000000 0.000000
-1.000000 11266.445312 0.000000
-1.000000 -277744.687500 0.000000
-1.000000 -0.000004 0.000000
-1.000000 11322.829102 0.000000
-1.000000 255155.406250 0.000000
