# vtk DataFile Version 4.0
hesp visualization file
ASCII
DATASET UNSTRUCTURED_GRID
POINTS 10 double
0.301000 2859896.250000 0.000000
0.301000 -2859895.250000 0.000000
0.301000 2.000000 0.000000
0.301000 2728463.000000 0.000000
0.301000 -2728456.000000 0.000000
9.698878 1915.661499 0.000000
9.698878 -36023.363281 0.000000
9.698878 2.000000 0.000000
9.698878 1928.153198 0.000000
9.698878 32187.603516 0.000000
CELLS 0 0
CELL_TYPES 0
POINT_DATA 10
SCALARS m double
LOOKUP_TABLE default
1.000000
1.000000
1.000000
1.000000
1.000000
2.000000
2.000000
2.000000
2.000000
2.000000
VECTORS v double
1.000000 13749493.000000 0.000000
1.000000 -13749492.000000 0.000000
1.000000 0.000039 0.000000
1.000000 13117609.000000 0.000000
1.000000 -13117611.000000 0.000000
-1.000000 11266.445312 0.000000
-1.000000 -277744.687500 0.000000
-1.000000 -0.000004 0.000000
-1.000000 11322.829102 0.000000
-1.000000 255155.406250 0.000000
