# vtk DataFile Version 4.0
hesp visualization file
ASCII
DATASET UNSTRUCTURED_GRID
POINTS 10 double
0.020100 0.004892 -0.000000
0.020100 0.999294 -0.000000
0.020100 2.021375 -0.000000
0.020100 2.999413 0.000033
0.020100 3.995128 0.020067
9.979873 0.002768 -0.000000
9.979873 0.979228 -0.000000
9.979873 2.000287 -0.000000
9.979873 3.000381 -0.000000
9.979873 3.977134 -0.000000
CELLS 0 0
CELL_TYPES 0
POINT_DATA 10
SCALARS m double
LOOKUP_TABLE default
1.000000
1.000000
1.000000
1.000000
1.000000
2.000000
2.000000
2.000000
2.000000
2.000000
VECTORS v double
1.000000 0.495515 -0.000000
1.000000 -0.107092 -0.000001
1.000000 1.194530 -0.000014
1.000000 -0.091503 0.005042
1.000000 -0.491449 0.994973
-1.000000 0.297059 -0.000000
-1.000000 -1.101965 -0.000000
-1.000000 0.042114 -0.000000
-1.000000 0.059327 -0.000000
-1.000000 -1.296535 -0.000000
