# vtk DataFile Version 4.0
hesp visualization file
ASCII
DATASET UNSTRUCTURED_GRID
POINTS 10 double
0.050100 0.034134 -0.000000
0.050100 0.986614 -0.000000
0.050100 2.074368 0.000002
0.050100 2.987234 0.000570
0.050100 3.967753 0.049528
9.949832 0.023186 -0.000000
9.949832 0.937344 -0.000000
9.949832 2.004116 -0.000000
9.949832 3.008146 -0.000000
9.949832 3.927008 -0.000000
CELLS 0 0
CELL_TYPES 0
POINT_DATA 10
SCALARS m double
LOOKUP_TABLE default
1.000000
1.000000
1.000000
1.000000
1.000000
2.000000
2.000000
2.000000
2.000000
2.000000
VECTORS v double
1.000000 1.592773 -0.000001
1.000000 -0.941556 -0.000005
1.000000 2.741797 0.000400
1.000000 -1.019173 0.036340
1.000000 -1.373842 0.963267
-1.000000 1.231361 -0.000000
-1.000000 -1.883574 -0.000000
-1.000000 0.235216 -0.000000
-1.000000 0.612015 -0.000000
-1.000000 -2.195016 -0.000000
