# vtk DataFile Version 4.0
hesp visualization file
ASCII
DATASET UNSTRUCTURED_GRID
POINTS 10 double
0.400998 4234846.000000 0.000000
0.400998 -4234845.000000 0.000000
0.400998 2.000000 0.000000
0.400998 4040213.000000 0.000000
0.400998 -4040206.000000 0.000000
9.598838 3042.298584 0.000000
9.598838 -63797.972656 0.000000
9.598838 2.000000 0.000000
9.598838 3060.429932 0.000000
9.598838 57703.226562 0.000000
CELLS 0 0
CELL_TYPES 0
POINT_DATA 10
SCALARS m double
LOOKUP_TABLE default
1.000000
1.000000
1.000000
1.000000
1.000000
2.000000
2.000000
2.000000
2.000000
2.000000
VECTORS v double
1.000000 13749493.000000 0.000000
1.000000 -13749492.000000 0.000000
1.000000 0.000039 0.000000
1.000000 13117609.000000 0.000000
1.000000 -13117611.000000 0.000000
-1.000000 11266.445312 0.000000
-1.000000 -277744.687500 0.000000
-1.000000 -0.000004 0.000000
-1.000000 11322.829102 0.000000
-1.000000 255155.406250 0.000000
