# vtk DataFile Version 4.0
hesp visualization file
ASCII
DATASET UNSTRUCTURED_GRID
POINTS 10 double
0.201000 1484946.375000 0.000000
0.201000 -1484945.250000 0.000000
0.201000 2.000000 0.000000
0.201000 1416706.500000 0.000000
0.201000 -1416699.625000 0.000000
9.798919 789.014832 0.000000
9.798919 -8248.898438 0.000000
9.798919 2.000000 0.000000
9.798919 795.866882 0.000000
9.798919 6672.015625 0.000000
CELLS 0 0
CELL_TYPES 0
POINT_DATA 10
SCALARS m double
LOOKUP_TABLE default
1.000000
1.000000
1.000000
1.000000
1.000000
2.000000
2.000000
2.000000
2.000000
2.000000
VECTORS v double
1.000000 13749493.000000 0.000000
1.000000 -13749492.000000 0.000000
1.000000 0.000039 0.000000
1.000000 13117609.000000 0.000000
1.000000 -13117611.000000 0.000000
-1.000000 11266.445312 0.000000
-1.000000 -277744.687500 0.000000
-1.000000 -0.000004 0.000000
-1.000000 11322.829102 0.000000
-1.000000 255155.406250 0.000000
