# vtk DataFile Version 4.0
hesp visualization file
ASCII
DATASET UNSTRUCTURED_GRID
POINTS 10 double
0.010100 0.001219 -0.000000
0.010100 0.999910 -0.000000
0.010100 2.010258 -0.000000
0.010100 2.999932 0.000004
0.010100 3.998783 0.010096
9.989886 0.000649 -0.000000
9.989886 0.989815 -0.000000
9.989886 2.000037 -0.000000
9.989886 3.000046 -0.000000
9.989886 3.989251 -0.000000
CELLS 0 0
CELL_TYPES 0
POINT_DATA 10
SCALARS m double
LOOKUP_TABLE default
1.000000
1.000000
1.000000
1.000000
1.000000
2.000000
2.000000
2.000000
2.000000
2.000000
VECTORS v double
1.000000 0.242457 -0.000000
1.000000 -0.026225 -0.000000
1.000000 1.047099 -0.000004
1.000000 -0.021217 0.001237
1.000000 -0.242114 0.998768
-1.000000 0.133123 -0.000000
-1.000000 -1.024942 -0.000000
-1.000000 0.011059 -0.000000
-1.000000 0.013840 -0.000000
-1.000000 -1.133080 -0.000000
