# vtk DataFile Version 4.0
hesp visualization file
ASCII
DATASET UNSTRUCTURED_GRID
POINTS 10 double
0.040100 0.020686 -0.000000
0.040100 0.993738 -0.000000
0.040100 2.051390 -0.000000
0.040100 2.994430 0.000281
0.040100 3.979861 0.039819
9.959846 0.013201 -0.000000
9.959846 0.954006 -0.000000
9.959846 2.002167 -0.000000
9.959846 3.003648 -0.000000
9.959846 3.946779 -0.000000
CELLS 0 0
CELL_TYPES 0
POINT_DATA 10
SCALARS m double
LOOKUP_TABLE default
1.000000
1.000000
1.000000
1.000000
1.000000
2.000000
2.000000
2.000000
2.000000
2.000000
VECTORS v double
1.000000 1.125200 -0.000000
1.000000 -0.518524 -0.000003
1.000000 1.934161 0.000064
1.000000 -0.488586 0.022106
1.000000 -1.052251 0.977834
-1.000000 0.798519 -0.000000
-1.000000 -1.484402 -0.000000
-1.000000 0.156636 -0.000000
-1.000000 0.316690 -0.000000
-1.000000 -1.787442 -0.000000
