# vtk DataFile Version 4.0
hesp visualization file
ASCII
DATASET UNSTRUCTURED_GRID
POINTS 10 double
0.070101 0.083197 -0.000000
0.070101 0.950607 -0.000000
0.070101 2.176178 0.000064
0.070101 2.926399 0.001610
0.070101 3.933726 0.068426
9.929805 0.065708 -0.000000
9.929805 0.882081 -0.000000
9.929805 2.010536 -0.000000
9.929805 3.033867 -0.000000
9.929805 3.867606 -0.000000
CELLS 0 0
CELL_TYPES 0
POINT_DATA 10
SCALARS m double
LOOKUP_TABLE default
1.000000
1.000000
1.000000
1.000000
1.000000
2.000000
2.000000
2.000000
2.000000
2.000000
VECTORS v double
1.000000 3.851154 -0.000002
1.000000 -3.214428 -0.000012
1.000000 11.155653 0.013286
1.000000 -8.802770 0.059577
1.000000 -1.989612 0.927151
-1.000000 3.683892 -0.000000
-1.000000 -4.315380 -0.000000
-1.000000 0.404947 -0.000000
-1.000000 2.450862 -0.000000
-1.000000 -4.224323 -0.000000
