# vtk DataFile Version 4.0
hesp visualization file
ASCII
DATASET UNSTRUCTURED_GRID
POINTS 18 double
1.000652 4.995611 4.995623
1.000658 6.500268 4.995622
1.000650 8.004393 4.999732
1.000652 4.995622 6.504377
1.000652 6.504077 6.504680
8.999386 4.995611 4.995623
8.999376 6.500267 4.995622
8.999390 8.004392 4.999732
8.999386 4.995622 6.504377
8.999386 6.504077 6.504680
0 0 0
10.000000 0 0
10.000000 10.000000 0
0 10.000000 0
0 0 10.000000
10.000000 0 10.000000
10.000000 10.000000 10.000000
0 10.000000 10.000000
CELLS 12 36
2 10 11
2 11 12
2 12 13
2 13 10
2 14 15
2 15 16
2 16 17
2 17 14
2 10 14
2 11 15
2 12 16
2 13 17
CELL_TYPES 12
3
3
3
3
3
3
3
3
3
3
3
3
POINT_DATA 10
SCALARS m double
LOOKUP_TABLE default
1.000000
1.000000
1.000000
1.000000
1.000000
1.000000
1.000000
1.000000
1.000000
1.000000
VECTORS v double
0.015376 -0.103987 -0.103485
0.015450 0.006987 -0.103559
0.015349 0.104141 -0.007108
0.015376 -0.103540 0.103504
0.015373 0.096413 0.110648
-0.015376 -0.103987 -0.103485
-0.015469 0.006973 -0.103559
-0.015331 0.104127 -0.007108
-0.015376 -0.103540 0.103504
-0.015373 0.096413 0.110648
