# vtk DataFile Version 4.0
hesp visualization file
ASCII
DATASET UNSTRUCTURED_GRID
POINTS 27 double
0.500000 0.500000 0.500000
1.500000 0.500000 0.500000
2.500000 0.500000 0.500000
0.500000 1.500000 0.500000
1.500000 1.500000 0.500000
2.500000 1.500000 0.500000
0.500000 2.500000 0.500000
1.500000 2.500000 0.500000
2.500000 2.500000 0.500000
0.500000 0.500000 1.500000
1.500000 0.500000 1.500000
2.500000 0.500000 1.500000
0.500000 1.500000 1.500000
1.500000 1.500000 1.500000
2.500000 1.500000 1.500000
0.500000 2.500000 1.500000
1.500000 2.500000 1.500000
2.500000 2.500000 1.500000
0.500000 0.500000 2.500000
1.500000 0.500000 2.500000
2.500000 0.500000 2.500000
0.500000 1.500000 2.500000
1.500000 1.500000 2.500000
2.500000 1.500000 2.500000
0.500000 2.500000 2.500000
1.500000 2.500000 2.500000
2.500000 2.500000 2.500000
CELLS 0 0
CELL_TYPES 0
POINT_DATA 27
SCALARS m double
LOOKUP_TABLE default
1.000000
1.000000
1.000000
1.000000
1.000000
1.000000
1.000000
1.000000
1.000000
1.000000
1.000000
1.000000
1.000000
1.000000
1.000000
1.000000
1.000000
1.000000
1.000000
1.000000
1.000000
1.000000
1.000000
1.000000
1.000000
1.000000
1.000000
VECTORS v double
0.000000 0.000000 0.000000
0.000000 0.000000 0.000000
0.000000 0.000000 0.000000
0.000000 0.000000 0.000000
0.000000 0.000000 0.000000
0.000000 0.000000 0.000000
0.000000 0.000000 0.000000
0.000000 0.000000 0.000000
0.000000 0.000000 0.000000
0.000000 0.000000 0.000000
0.000000 0.000000 0.000000
0.000000 0.000000 0.000000
0.000000 0.000000 0.000000
0.000000 0.000000 0.000000
0.000000 0.000000 0.000000
0.000000 0.000000 0.000000
0.000000 0.000000 0.000000
0.000000 0.000000 0.000000
0.000000 0.000000 0.000000
0.000000 0.000000 0.000000
0.000000 0.000000 0.000000
0.000000 0.000000 0.000000
0.000000 0.000000 0.000000
0.000000 0.000000 0.000000
0.000000 0.000000 0.000000
0.000000 0.000000 0.000000
0.000000 0.000000 0.000000
