# vtk DataFile Version 4.0
hesp visualization file
ASCII
DATASET UNSTRUCTURED_GRID
POINTS 2 double
892.544556 11.724327 0.000000
-891.544495 -11.654183 0.000000
CELLS 0 0
CELL_TYPES 0
POINT_DATA 2
SCALARS m double
LOOKUP_TABLE default
1.000000
1.000000
VECTORS v double
1502.110107 19.733707 0.000000
-1502.110107 -19.633707 0.000000
