# vtk DataFile Version 4.0
hesp visualization file
ASCII
DATASET UNSTRUCTURED_GRID
POINTS 2 double
592.117310 7.777636 0.000000
-591.117249 -7.727519 0.000000
CELLS 0 0
CELL_TYPES 0
POINT_DATA 2
SCALARS m double
LOOKUP_TABLE default
1.000000
1.000000
VECTORS v double
1502.110107 19.733707 0.000000
-1502.110107 -19.633707 0.000000
