# vtk DataFile Version 4.0
hesp visualization file
ASCII
DATASET UNSTRUCTURED_GRID
POINTS 2 double
0.134677 0.000801 0.000000
0.865323 0.009299 0.000000
CELLS 0 0
CELL_TYPES 0
POINT_DATA 2
SCALARS m double
LOOKUP_TABLE default
1.000000
1.000000
VECTORS v double
7.943045 0.073944 0.000000
-7.943045 0.026056 0.000000
