# vtk DataFile Version 4.0
hesp visualization file
ASCII
DATASET UNSTRUCTURED_GRID
POINTS 2 double
141.483932 1.857490 0.000000
-140.483932 -1.837389 0.000000
CELLS 0 0
CELL_TYPES 0
POINT_DATA 2
SCALARS m double
LOOKUP_TABLE default
1.000000
1.000000
VECTORS v double
1502.110107 19.733707 0.000000
-1502.110107 -19.633707 0.000000
