# vtk DataFile Version 4.0
hesp visualization file
ASCII
DATASET UNSTRUCTURED_GRID
POINTS 2 double
1042.757446 13.697670 0.000000
-1041.757446 -13.617513 0.000000
CELLS 0 0
CELL_TYPES 0
POINT_DATA 2
SCALARS m double
LOOKUP_TABLE default
1.000000
1.000000
VECTORS v double
1502.110107 19.733707 0.000000
-1502.110107 -19.633707 0.000000
