# vtk DataFile Version 4.0
hesp visualization file
ASCII
DATASET UNSTRUCTURED_GRID
POINTS 10 double
4.975428 5.000000 5.016557
5.985785 5.000000 5.016557
6.990490 5.000000 5.016557
7.989921 5.000000 5.016557
9.000249 5.000000 5.016557
4.975428 6.000000 5.016557
5.985785 6.000000 5.016557
6.990490 6.000000 5.016557
7.989921 6.000000 5.016557
9.000249 6.000000 5.016557
CELLS 0 0
CELL_TYPES 0
POINT_DATA 10
SCALARS m double
LOOKUP_TABLE default
1.000000
1.000000
1.000000
1.000000
1.000000
1.000000
1.000000
1.000000
1.000000
1.000000
VECTORS v double
-1.364178 0.000000 0.569953
-1.118603 0.000000 0.569953
-0.230385 0.000000 0.569953
0.328190 0.000000 0.569953
1.384977 0.000000 0.569953
-1.364178 0.000000 0.569953
-1.118603 0.000000 0.569953
-0.230385 0.000000 0.569953
0.328190 0.000000 0.569953
1.384977 0.000000 0.569953
