# vtk DataFile Version 4.0
hesp visualization file
ASCII
DATASET UNSTRUCTURED_GRID
POINTS 10 double
5.094778 5.306884 5.000000
5.969421 5.192304 5.000000
7.000000 5.190993 5.000000
8.030517 5.192303 5.000000
8.905261 5.306884 5.000000
5.094778 5.693116 5.000000
5.969421 5.807696 5.000000
7.000000 5.809007 5.000000
8.030517 5.807697 5.000000
8.905261 5.693116 5.000000
CELLS 0 0
CELL_TYPES 0
POINT_DATA 10
SCALARS m double
LOOKUP_TABLE default
1.000000
1.000000
1.000000
1.000000
1.000000
1.000000
1.000000
1.000000
1.000000
1.000000
VECTORS v double
3.891553 889.629761 0.000000
-2.344336 35.856823 0.000000
0.000518 34.903229 0.000000
2.340897 35.856155 0.000000
-3.888629 889.629761 0.000000
3.891554 -889.629761 0.000000
-2.344336 -35.856823 0.000000
0.000518 -34.903225 0.000000
2.340897 -35.856155 0.000000
-3.888629 -889.629761 0.000000
