# vtk DataFile Version 4.0
hesp visualization file
ASCII
DATASET UNSTRUCTURED_GRID
POINTS 2 double
359.277863 3.333480 0.000000
-358.277863 -3.293391 0.000000
CELLS 0 0
CELL_TYPES 0
POINT_DATA 2
SCALARS m double
LOOKUP_TABLE default
1.000000
1.000000
VECTORS v double
1104.648315 10.251865 0.000000
-1104.648315 -10.151866 0.000000
