# vtk DataFile Version 4.0
hesp visualization file
ASCII
DATASET UNSTRUCTURED_GRID
POINTS 18 double
5.090988 5.199236 5.000000
5.971669 5.165182 5.000000
7.000000 5.164416 5.000000
8.028275 5.165181 5.000000
8.909049 5.199236 5.000000
5.090988 5.800764 5.000000
5.971669 5.834818 5.000000
7.000000 5.835584 5.000000
8.028275 5.834819 5.000000
8.909049 5.800764 5.000000
0 0 0
10.000000 0 0
10.000000 10.000000 0
0 10.000000 0
0 0 10.000000
10.000000 0 10.000000
10.000000 10.000000 10.000000
0 10.000000 10.000000
CELLS 12 36
2 10 11
2 11 12
2 12 13
2 13 10
2 14 15
2 15 16
2 16 17
2 17 14
2 10 14
2 11 15
2 12 16
2 13 17
CELL_TYPES 12
3
3
3
3
3
3
3
3
3
3
3
3
POINT_DATA 10
SCALARS m double
LOOKUP_TABLE default
1.000000
1.000000
1.000000
1.000000
1.000000
1.000000
1.000000
1.000000
1.000000
1.000000
VECTORS v double
3.690760 41.256668 0.000000
-2.154232 21.157742 0.000000
0.000501 20.841076 0.000000
2.151137 21.157461 0.000000
-3.688162 41.256687 0.000000
3.690760 -41.256668 0.000000
-2.154232 -21.157742 0.000000
0.000501 -20.841074 0.000000
2.151137 -21.157461 0.000000
-3.688162 -41.256687 0.000000
