# vtk DataFile Version 4.0
hesp visualization file
ASCII
DATASET UNSTRUCTURED_GRID
POINTS 9 double
1005.356201 1005.301331 0.000000
733.986633 -3.147880 0.000000
1006.734802 -998.745605 0.000000
-3.212017 734.001343 0.000000
-1.363575 -1.368824 0.000000
-3.158145 -730.474548 0.000000
-998.716431 1006.734741 0.000000
-730.474060 -3.150051 0.000000
-1000.145508 -1000.147522 0.000000
CELLS 0 0
CELL_TYPES 0
POINT_DATA 9
SCALARS m double
LOOKUP_TABLE default
1.000000
1.000000
1.000000
1.000000
1.000000
1.000000
1.000000
1.000000
1.000000
VECTORS v double
1454.115234 1454.016602 0.000000
1061.456177 -6.001832 0.000000
1456.087524 -1447.418579 0.000000
-6.094640 1061.486206 0.000000
-3.424783 -3.432366 0.000000
-6.016673 -1059.277100 0.000000
-1447.398071 1456.087280 0.000000
-1059.276001 -6.004982 0.000000
-1449.449097 -1449.455566 0.000000
