# vtk DataFile Version 4.0
hesp visualization file
ASCII
DATASET UNSTRUCTURED_GRID
POINTS 9 double
0.000011 0.000011 0.000000
0.000011 1.000000 0.000000
0.000011 1.999989 0.000000
1.000000 0.000011 0.000000
1.000000 1.000000 0.000000
1.000000 1.999989 0.000000
1.999989 0.000011 0.000000
1.999989 1.000000 0.000000
1.999989 1.999989 0.000000
CELLS 0 0
CELL_TYPES 0
POINT_DATA 9
SCALARS m double
LOOKUP_TABLE default
1.000000
1.000000
1.000000
1.000000
1.000000
1.000000
1.000000
1.000000
1.000000
VECTORS v double
0.022571 0.022571 0.000000
0.021420 0.000000 0.000000
0.022571 -0.022571 0.000000
0.000000 0.021420 0.000000
-0.000000 -0.000000 0.000000
0.000000 -0.021420 0.000000
-0.022571 0.022571 0.000000
-0.021420 0.000000 0.000000
-0.022571 -0.022571 0.000000
