# vtk DataFile Version 4.0
hesp visualization file
ASCII
DATASET UNSTRUCTURED_GRID
POINTS 9 double
0.099272 0.099272 0.000000
0.093777 1.000000 0.000000
0.099272 1.900728 0.000000
1.000000 0.093777 0.000000
1.000000 1.000000 0.000000
1.000000 1.906224 0.000000
1.900728 0.099272 0.000000
1.906224 1.000000 0.000000
1.900728 1.900728 0.000000
CELLS 0 0
CELL_TYPES 0
POINT_DATA 9
SCALARS m double
LOOKUP_TABLE default
1.000000
1.000000
1.000000
1.000000
1.000000
1.000000
1.000000
1.000000
1.000000
VECTORS v double
3.557264 3.557264 0.000000
3.333536 0.000007 0.000000
3.557264 -3.557269 0.000000
0.000008 3.333536 0.000000
-0.000056 -0.000056 0.000000
0.000007 -3.333488 0.000000
-3.557268 3.557264 0.000000
-3.333488 0.000007 0.000000
-3.557268 -3.557268 0.000000
