# vtk DataFile Version 4.0
hesp visualization file
ASCII
DATASET UNSTRUCTURED_GRID
POINTS 9 double
0.031378 0.031378 0.000000
0.029754 1.000000 0.000000
0.031378 1.968622 0.000000
1.000000 0.029754 0.000000
1.000000 1.000000 0.000000
1.000000 1.970247 0.000000
1.968622 0.031378 0.000000
1.970247 1.000000 0.000000
1.968622 1.968622 0.000000
CELLS 0 0
CELL_TYPES 0
POINT_DATA 9
SCALARS m double
LOOKUP_TABLE default
1.000000
1.000000
1.000000
1.000000
1.000000
1.000000
1.000000
1.000000
1.000000
VECTORS v double
1.393670 1.393670 0.000000
1.320163 0.000004 0.000000
1.393670 -1.393672 0.000000
0.000004 1.320163 0.000000
-0.000018 -0.000018 0.000000
0.000004 -1.320148 0.000000
-1.393672 1.393670 0.000000
-1.320148 0.000004 0.000000
-1.393672 -1.393672 0.000000
