# vtk DataFile Version 4.0
hesp visualization file
ASCII
DATASET UNSTRUCTURED_GRID
POINTS 9 double
423.715576 423.686951 0.000000
309.401703 -0.747125 0.000000
424.290344 -419.768066 0.000000
-0.774142 309.410553 0.000000
0.006334 0.004129 0.000000
-0.751455 -306.768494 0.000000
-419.761322 424.290314 0.000000
-306.768005 -0.748054 0.000000
-420.360382 -420.362366 0.000000
CELLS 0 0
CELL_TYPES 0
POINT_DATA 9
SCALARS m double
LOOKUP_TABLE default
1.000000
1.000000
1.000000
1.000000
1.000000
1.000000
1.000000
1.000000
1.000000
VECTORS v double
1454.115234 1454.016602 0.000000
1061.456177 -6.001832 0.000000
1456.087524 -1447.418579 0.000000
-6.094640 1061.486206 0.000000
-3.424783 -3.432366 0.000000
-6.016673 -1059.277100 0.000000
-1447.398071 1456.087280 0.000000
-1059.276001 -6.004982 0.000000
-1449.449097 -1449.455566 0.000000
