# vtk DataFile Version 4.0
hesp visualization file
ASCII
DATASET UNSTRUCTURED_GRID
POINTS 9 double
1150.766357 1150.700073 0.000000
840.132874 -3.748075 0.000000
1152.340942 -1143.485474 0.000000
-3.821486 840.147583 0.000000
-1.706051 -1.712063 0.000000
-3.759818 -836.401062 0.000000
-1143.455200 1152.340942 0.000000
-836.400574 -3.750556 0.000000
-1145.091797 -1145.093750 0.000000
CELLS 0 0
CELL_TYPES 0
POINT_DATA 9
SCALARS m double
LOOKUP_TABLE default
1.000000
1.000000
1.000000
1.000000
1.000000
1.000000
1.000000
1.000000
1.000000
VECTORS v double
1454.115234 1454.016602 0.000000
1061.456177 -6.001832 0.000000
1456.087524 -1447.418579 0.000000
-6.094640 1061.486206 0.000000
-3.424783 -3.432366 0.000000
-6.016673 -1059.277100 0.000000
-1447.398071 1456.087280 0.000000
-1059.276001 -6.004982 0.000000
-1449.449097 -1449.455566 0.000000
