# vtk DataFile Version 4.0
hesp visualization file
ASCII
DATASET UNSTRUCTURED_GRID
POINTS 9 double
0.019332 0.019332 0.000000
0.018339 1.000000 0.000000
0.019332 1.980668 0.000000
1.000000 0.018339 0.000000
1.000000 1.000000 0.000000
1.000000 1.981662 0.000000
1.980668 0.019332 0.000000
1.981662 1.000000 0.000000
1.980668 1.980668 0.000000
CELLS 0 0
CELL_TYPES 0
POINT_DATA 9
SCALARS m double
LOOKUP_TABLE default
1.000000
1.000000
1.000000
1.000000
1.000000
1.000000
1.000000
1.000000
1.000000
VECTORS v double
1.028955 1.028956 0.000000
0.975578 0.000003 0.000000
1.028956 -1.028957 0.000000
0.000003 0.975578 0.000000
-0.000011 -0.000011 0.000000
0.000003 -0.975569 0.000000
-1.028957 1.028956 0.000000
-0.975569 0.000003 0.000000
-1.028957 -1.028957 0.000000
