# vtk DataFile Version 4.0
hesp visualization file
ASCII
DATASET UNSTRUCTURED_GRID
POINTS 9 double
0.004629 0.004629 0.000000
0.004393 1.000000 0.000000
0.004629 1.995371 0.000000
1.000000 0.004393 0.000000
1.000000 1.000000 0.000000
1.000000 1.995608 0.000000
1.995371 0.004629 0.000000
1.995608 1.000000 0.000000
1.995371 1.995371 0.000000
CELLS 0 0
CELL_TYPES 0
POINT_DATA 9
SCALARS m double
LOOKUP_TABLE default
1.000000
1.000000
1.000000
1.000000
1.000000
1.000000
1.000000
1.000000
1.000000
VECTORS v double
0.467722 0.467722 0.000000
0.443795 0.000001 0.000000
0.467722 -0.467723 0.000000
0.000001 0.443795 0.000000
-0.000003 -0.000003 0.000000
0.000001 -0.443793 0.000000
-0.467723 0.467722 0.000000
-0.443793 0.000001 0.000000
-0.467723 -0.467723 0.000000
