# vtk DataFile Version 4.0
hesp visualization file
ASCII
DATASET UNSTRUCTURED_GRID
POINTS 9 double
0.000000 0.000000 0.000000
0.000000 1.000000 0.000000
0.000000 2.000000 0.000000
1.000000 0.000000 0.000000
1.000000 1.000000 0.000000
1.000000 2.000000 0.000000
2.000000 0.000000 0.000000
2.000000 1.000000 0.000000
2.000000 2.000000 0.000000
CELLS 0 0
CELL_TYPES 0
POINT_DATA 9
SCALARS m double
LOOKUP_TABLE default
1.000000
1.000000
1.000000
1.000000
1.000000
1.000000
1.000000
1.000000
1.000000
VECTORS v double
0.002257 0.002257 0.000000
0.002142 0.000000 0.000000
0.002257 -0.002257 0.000000
0.000000 0.002142 0.000000
0.000000 0.000000 0.000000
-0.000000 -0.002142 0.000000
-0.002257 0.002257 0.000000
-0.002142 0.000000 0.000000
-0.002257 -0.002257 0.000000
