# vtk DataFile Version 4.0
hesp visualization file
ASCII
DATASET UNSTRUCTURED_GRID
POINTS 9 double
714.535889 714.493225 0.000000
521.694153 -1.947491 0.000000
715.511658 -709.255859 0.000000
-1.993078 521.708862 0.000000
-0.678622 -0.682346 0.000000
-1.954798 -518.621521 0.000000
-709.238892 715.511597 0.000000
-518.621033 -1.949042 0.000000
-710.252930 -710.254944 0.000000
CELLS 0 0
CELL_TYPES 0
POINT_DATA 9
SCALARS m double
LOOKUP_TABLE default
1.000000
1.000000
1.000000
1.000000
1.000000
1.000000
1.000000
1.000000
1.000000
VECTORS v double
1454.115234 1454.016602 0.000000
1061.456177 -6.001832 0.000000
1456.087524 -1447.418579 0.000000
-6.094640 1061.486206 0.000000
-3.424783 -3.432366 0.000000
-6.016673 -1059.277100 0.000000
-1447.398071 1456.087280 0.000000
-1059.276001 -6.004982 0.000000
-1449.449097 -1449.455566 0.000000
