# vtk DataFile Version 4.0
hesp visualization file
ASCII
DATASET UNSTRUCTURED_GRID
POINTS 9 double
859.946045 859.897278 0.000000
627.840393 -2.547685 0.000000
861.123230 -854.000732 0.000000
-2.602548 627.855103 0.000000
-1.021098 -1.025585 0.000000
-2.556472 -624.548035 0.000000
-853.977661 861.123169 0.000000
-624.547546 -2.549546 0.000000
-855.199219 -855.201233 0.000000
CELLS 0 0
CELL_TYPES 0
POINT_DATA 9
SCALARS m double
LOOKUP_TABLE default
1.000000
1.000000
1.000000
1.000000
1.000000
1.000000
1.000000
1.000000
1.000000
VECTORS v double
1454.115234 1454.016602 0.000000
1061.456177 -6.001832 0.000000
1456.087524 -1447.418579 0.000000
-6.094640 1061.486206 0.000000
-3.424783 -3.432366 0.000000
-6.016673 -1059.277100 0.000000
-1447.398071 1456.087280 0.000000
-1059.276001 -6.004982 0.000000
-1449.449097 -1449.455566 0.000000
