# vtk DataFile Version 4.0
hesp visualization file
ASCII
DATASET UNSTRUCTURED_GRID
POINTS 9 double
132.893982 132.884933 0.000000
97.109451 0.453241 0.000000
133.073288 -130.284424 0.000000
0.444785 97.112206 0.000000
0.691290 0.690603 0.000000
0.451880 -94.913132 0.000000
-130.282471 133.073273 0.000000
-94.912880 0.452944 0.000000
-130.469131 -130.469803 0.000000
CELLS 0 0
CELL_TYPES 0
POINT_DATA 9
SCALARS m double
LOOKUP_TABLE default
1.000000
1.000000
1.000000
1.000000
1.000000
1.000000
1.000000
1.000000
1.000000
VECTORS v double
1454.115234 1454.016602 0.000000
1061.456177 -6.001832 0.000000
1456.087524 -1447.418579 0.000000
-6.094640 1061.486206 0.000000
-3.424783 -3.432366 0.000000
-6.016673 -1059.277100 0.000000
-1447.398071 1456.087280 0.000000
-1059.276001 -6.004982 0.000000
-1449.449097 -1449.455566 0.000000
