# vtk DataFile Version 4.0
hesp visualization file
ASCII
DATASET UNSTRUCTURED_GRID
POINTS 9 double
0.001155 0.001155 0.000000
0.001097 1.000000 0.000000
0.001155 1.998844 0.000000
1.000000 0.001097 0.000000
1.000000 1.000000 0.000000
1.000000 1.998904 0.000000
1.998844 0.001155 0.000000
1.998904 1.000000 0.000000
1.998844 1.998844 0.000000
CELLS 0 0
CELL_TYPES 0
POINT_DATA 9
SCALARS m double
LOOKUP_TABLE default
1.000000
1.000000
1.000000
1.000000
1.000000
1.000000
1.000000
1.000000
1.000000
VECTORS v double
0.229687 0.229687 0.000000
0.217964 0.000000 0.000000
0.229687 -0.229687 0.000000
0.000000 0.217964 0.000000
-0.000001 -0.000001 0.000000
0.000000 -0.217963 0.000000
-0.229687 0.229687 0.000000
-0.217963 0.000000 0.000000
-0.229687 -0.229687 0.000000
