# vtk DataFile Version 4.0
hesp visualization file
ASCII
DATASET UNSTRUCTURED_GRID
POINTS 9 double
0.047558 0.047558 0.000000
0.045069 1.000000 0.000000
0.047558 1.952442 0.000000
1.000000 0.045069 0.000000
1.000000 1.000000 0.000000
1.000000 1.954932 0.000000
1.952442 0.047558 0.000000
1.954932 1.000000 0.000000
1.952442 1.952442 0.000000
CELLS 0 0
CELL_TYPES 0
POINT_DATA 9
SCALARS m double
LOOKUP_TABLE default
1.000000
1.000000
1.000000
1.000000
1.000000
1.000000
1.000000
1.000000
1.000000
VECTORS v double
1.865241 1.865241 0.000000
1.763917 0.000006 0.000000
1.865241 -1.865245 0.000000
0.000006 1.763917 0.000000
-0.000026 -0.000026 0.000000
0.000006 -1.763895 0.000000
-1.865245 1.865241 0.000000
-1.763895 0.000006 0.000000
-1.865245 -1.865245 0.000000
