# vtk DataFile Version 4.0
hesp visualization file
ASCII
DATASET UNSTRUCTURED_GRID
POINTS 2 double
-0.000082 0.000000 0.000000
2.000325 0.000000 0.000000
CELLS 0 0
CELL_TYPES 0
POINT_DATA 2
SCALARS m double
LOOKUP_TABLE default
4.000000
1.000000
VECTORS v double
-0.002728 0.000000 0.000000
0.010912 0.000000 0.000000
