# vtk DataFile Version 4.0
hesp visualization file
ASCII
DATASET UNSTRUCTURED_GRID
POINTS 2 double
-0.000037 0.000000 0.000000
2.000146 0.000000 0.000000
CELLS 0 0
CELL_TYPES 0
POINT_DATA 2
SCALARS m double
LOOKUP_TABLE default
4.000000
1.000000
VECTORS v double
-0.001821 0.000000 0.000000
0.007282 0.000000 0.000000
