# vtk DataFile Version 4.0
hesp visualization file
ASCII
DATASET UNSTRUCTURED_GRID
POINTS 8 double
1.080113 1.080113 1.111574
8.919791 1.080113 1.111574
1.080113 8.919791 1.111574
8.919791 8.919791 1.111574
1.080113 1.080113 8.951368
8.919791 1.080113 8.951368
1.080113 8.919791 8.951368
8.919791 8.919791 8.951368
CELLS 0 0
CELL_TYPES 0
POINT_DATA 8
SCALARS m double
LOOKUP_TABLE default
1.000000
1.000000
1.000000
1.000000
1.000000
1.000000
1.000000
1.000000
VECTORS v double
1.000000 1.000000 1.785855
-1.000000 1.000000 1.785855
1.000000 -1.000000 1.785855
-1.000000 -1.000000 1.785855
1.000000 1.000000 -0.214239
-1.000000 1.000000 -0.214239
1.000000 -1.000000 -0.214239
-1.000000 -1.000000 -0.214239
