# vtk DataFile Version 4.0
hesp visualization file
ASCII
DATASET UNSTRUCTURED_GRID
POINTS 8 double
1.072112 1.072112 1.097601
8.927802 1.072112 1.097601
1.072112 8.927802 1.097601
8.927802 8.927802 1.097601
1.072112 1.072112 8.953397
8.927802 1.072112 8.953397
1.072112 8.927802 8.953397
8.927802 8.927802 8.953397
CELLS 0 0
CELL_TYPES 0
POINT_DATA 8
SCALARS m double
LOOKUP_TABLE default
1.000000
1.000000
1.000000
1.000000
1.000000
1.000000
1.000000
1.000000
VECTORS v double
1.000000 1.000000 1.707368
-1.000000 1.000000 1.707368
1.000000 -1.000000 1.707368
-1.000000 -1.000000 1.707368
1.000000 1.000000 -0.292718
-1.000000 1.000000 -0.292718
1.000000 -1.000000 -0.292718
-1.000000 -1.000000 -0.292718
