# vtk DataFile Version 4.0
hesp visualization file
ASCII
DATASET UNSTRUCTURED_GRID
POINTS 8 double
1.033105 1.033105 1.038475
8.966855 1.033105 1.038475
1.033105 8.966855 1.038475
8.966855 8.966855 1.038475
1.033105 1.033105 8.972274
8.966855 1.033105 8.972274
1.033105 8.966855 8.972274
8.966855 8.966855 8.972274
CELLS 0 0
CELL_TYPES 0
POINT_DATA 8
SCALARS m double
LOOKUP_TABLE default
1.000000
1.000000
1.000000
1.000000
1.000000
1.000000
1.000000
1.000000
VECTORS v double
1.000000 1.000000 1.324742
-1.000000 1.000000 1.324742
1.000000 -1.000000 1.324742
-1.000000 -1.000000 1.324742
1.000000 1.000000 -0.675298
-1.000000 1.000000 -0.675298
1.000000 -1.000000 -0.675298
-1.000000 -1.000000 -0.675298
