# vtk DataFile Version 4.0
hesp visualization file
ASCII
DATASET UNSTRUCTURED_GRID
POINTS 8 double
1.060110 1.060110 1.077819
8.939818 1.060110 1.077819
1.060110 8.939818 1.077819
8.939818 8.939818 1.077819
1.060110 1.060110 8.957616
8.939818 1.060110 8.957616
1.060110 8.939818 8.957616
8.939818 8.939818 8.957616
CELLS 0 0
CELL_TYPES 0
POINT_DATA 8
SCALARS m double
LOOKUP_TABLE default
1.000000
1.000000
1.000000
1.000000
1.000000
1.000000
1.000000
1.000000
VECTORS v double
1.000000 1.000000 1.589637
-1.000000 1.000000 1.589637
1.000000 -1.000000 1.589637
-1.000000 -1.000000 1.589637
1.000000 1.000000 -0.410435
-1.000000 1.000000 -0.410435
1.000000 -1.000000 -0.410435
-1.000000 -1.000000 -0.410435
