# vtk DataFile Version 4.0
hesp visualization file
ASCII
DATASET UNSTRUCTURED_GRID
POINTS 8 double
1.013102 1.013102 1.013942
8.986882 1.013102 1.013942
1.013102 8.986882 1.013942
8.986882 8.986882 1.013942
1.013102 1.013102 8.987741
8.986882 1.013102 8.987741
1.013102 8.986882 8.987741
8.986882 8.986882 8.987741
CELLS 0 0
CELL_TYPES 0
POINT_DATA 8
SCALARS m double
LOOKUP_TABLE default
1.000000
1.000000
1.000000
1.000000
1.000000
1.000000
1.000000
1.000000
VECTORS v double
1.000000 1.000000 1.128523
-1.000000 1.000000 1.128523
1.000000 -1.000000 1.128523
-1.000000 -1.000000 1.128523
1.000000 1.000000 -0.871493
-1.000000 1.000000 -0.871493
1.000000 -1.000000 -0.871493
-1.000000 -1.000000 -0.871493
