# vtk DataFile Version 4.0
hesp visualization file
ASCII
DATASET UNSTRUCTURED_GRID
POINTS 8 double
1.050108 1.050108 1.062413
8.949832 1.050108 1.062413
1.050108 8.949832 1.062413
8.949832 8.949832 1.062413
1.050108 1.050108 8.962211
8.949832 1.050108 8.962211
1.050108 8.949832 8.962211
8.949832 8.949832 8.962211
CELLS 0 0
CELL_TYPES 0
POINT_DATA 8
SCALARS m double
LOOKUP_TABLE default
1.000000
1.000000
1.000000
1.000000
1.000000
1.000000
1.000000
1.000000
VECTORS v double
1.000000 1.000000 1.491527
-1.000000 1.000000 1.491527
1.000000 -1.000000 1.491527
-1.000000 -1.000000 1.491527
1.000000 1.000000 -0.508532
-1.000000 1.000000 -0.508532
1.000000 -1.000000 -0.508532
-1.000000 -1.000000 -0.508532
