# vtk DataFile Version 4.0
hesp visualization file
ASCII
DATASET UNSTRUCTURED_GRID
POINTS 8 double
1.094116 1.094116 1.137537
8.905772 1.094116 1.137537
1.094116 8.905772 1.137537
8.905772 8.905772 1.137537
1.094116 1.094116 8.949331
8.905772 1.094116 8.949331
1.094116 8.905772 8.949331
8.905772 8.905772 8.949331
CELLS 0 0
CELL_TYPES 0
POINT_DATA 8
SCALARS m double
LOOKUP_TABLE default
1.000000
1.000000
1.000000
1.000000
1.000000
1.000000
1.000000
1.000000
VECTORS v double
1.000000 1.000000 1.923208
-1.000000 1.000000 1.923208
1.000000 -1.000000 1.923208
-1.000000 -1.000000 1.923208
1.000000 1.000000 -0.076899
-1.000000 1.000000 -0.076899
1.000000 -1.000000 -0.076899
-1.000000 -1.000000 -0.076899
