# vtk DataFile Version 4.0
hesp visualization file
ASCII
DATASET UNSTRUCTURED_GRID
POINTS 8 double
1.052109 1.052109 1.065415
8.947829 1.052109 1.065415
1.052109 8.947829 1.065415
8.947829 8.947829 1.065415
1.052109 1.052109 8.961213
8.947829 1.052109 8.961213
1.052109 8.947829 8.961213
8.947829 8.947829 8.961213
CELLS 0 0
CELL_TYPES 0
POINT_DATA 8
SCALARS m double
LOOKUP_TABLE default
1.000000
1.000000
1.000000
1.000000
1.000000
1.000000
1.000000
1.000000
VECTORS v double
1.000000 1.000000 1.511149
-1.000000 1.000000 1.511149
1.000000 -1.000000 1.511149
-1.000000 -1.000000 1.511149
1.000000 1.000000 -0.488913
-1.000000 1.000000 -0.488913
1.000000 -1.000000 -0.488913
-1.000000 -1.000000 -0.488913
