# vtk DataFile Version 4.0
hesp visualization file
ASCII
DATASET UNSTRUCTURED_GRID
POINTS 8 double
1.049108 1.049108 1.060926
8.950833 1.049108 1.060926
1.049108 8.950833 1.060926
8.950833 8.950833 1.060926
1.049108 1.049108 8.962724
8.950833 1.049108 8.962724
1.049108 8.950833 8.962724
8.950833 8.950833 8.962724
CELLS 0 0
CELL_TYPES 0
POINT_DATA 8
SCALARS m double
LOOKUP_TABLE default
1.000000
1.000000
1.000000
1.000000
1.000000
1.000000
1.000000
1.000000
VECTORS v double
1.000000 1.000000 1.481716
-1.000000 1.000000 1.481716
1.000000 -1.000000 1.481716
-1.000000 -1.000000 1.481716
1.000000 1.000000 -0.518342
-1.000000 1.000000 -0.518342
1.000000 -1.000000 -0.518342
-1.000000 -1.000000 -0.518342
