# vtk DataFile Version 4.0
hesp visualization file
ASCII
DATASET UNSTRUCTURED_GRID
POINTS 8 double
1.003101 1.003101 1.003147
8.996896 1.003101 1.003147
1.003101 8.996896 1.003147
8.996896 8.996896 1.003147
1.003101 1.003101 8.996947
8.996896 1.003101 8.996947
1.003101 8.996896 8.996947
8.996896 8.996896 8.996947
CELLS 0 0
CELL_TYPES 0
POINT_DATA 8
SCALARS m double
LOOKUP_TABLE default
1.000000
1.000000
1.000000
1.000000
1.000000
1.000000
1.000000
1.000000
VECTORS v double
1.000000 1.000000 1.030414
-1.000000 1.000000 1.030414
1.000000 -1.000000 1.030414
-1.000000 -1.000000 1.030414
1.000000 1.000000 -0.969590
-1.000000 1.000000 -0.969590
1.000000 -1.000000 -0.969590
-1.000000 -1.000000 -0.969590
