# vtk DataFile Version 4.0
hesp visualization file
ASCII
DATASET UNSTRUCTURED_GRID
POINTS 8 double
1.006101 1.006101 1.006283
8.993892 1.006101 1.006283
1.006101 8.993892 1.006283
8.993892 8.993892 1.006283
1.006101 1.006101 8.994082
8.993892 1.006101 8.994082
1.006101 8.993892 8.994082
8.993892 8.993892 8.994082
CELLS 0 0
CELL_TYPES 0
POINT_DATA 8
SCALARS m double
LOOKUP_TABLE default
1.000000
1.000000
1.000000
1.000000
1.000000
1.000000
1.000000
1.000000
VECTORS v double
1.000000 1.000000 1.059847
-1.000000 1.000000 1.059847
1.000000 -1.000000 1.059847
-1.000000 -1.000000 1.059847
1.000000 1.000000 -0.940161
-1.000000 1.000000 -0.940161
1.000000 -1.000000 -0.940161
-1.000000 -1.000000 -0.940161
