# vtk DataFile Version 4.0
hesp visualization file
ASCII
DATASET UNSTRUCTURED_GRID
POINTS 8 double
1.082114 1.082114 1.115165
8.917789 1.082114 1.115165
1.082114 8.917789 1.115165
8.917789 8.917789 1.115165
1.082114 1.082114 8.950960
8.917789 1.082114 8.950960
1.082114 8.917789 8.950960
8.917789 8.917789 8.950960
CELLS 0 0
CELL_TYPES 0
POINT_DATA 8
SCALARS m double
LOOKUP_TABLE default
1.000000
1.000000
1.000000
1.000000
1.000000
1.000000
1.000000
1.000000
VECTORS v double
1.000000 1.000000 1.805477
-1.000000 1.000000 1.805477
1.000000 -1.000000 1.805477
-1.000000 -1.000000 1.805477
1.000000 1.000000 -0.194619
-1.000000 1.000000 -0.194619
1.000000 -1.000000 -0.194619
-1.000000 -1.000000 -0.194619
