# vtk DataFile Version 4.0
hesp visualization file
ASCII
DATASET UNSTRUCTURED_GRID
POINTS 8 double
1.051108 1.051108 1.063909
8.948831 1.051108 1.063909
1.051108 8.948831 1.063909
8.948831 8.948831 1.063909
1.051108 1.051108 8.961707
8.948831 1.051108 8.961707
1.051108 8.948831 8.961707
8.948831 8.948831 8.961707
CELLS 0 0
CELL_TYPES 0
POINT_DATA 8
SCALARS m double
LOOKUP_TABLE default
1.000000
1.000000
1.000000
1.000000
1.000000
1.000000
1.000000
1.000000
VECTORS v double
1.000000 1.000000 1.501338
-1.000000 1.000000 1.501338
1.000000 -1.000000 1.501338
-1.000000 -1.000000 1.501338
1.000000 1.000000 -0.498723
-1.000000 1.000000 -0.498723
1.000000 -1.000000 -0.498723
-1.000000 -1.000000 -0.498723
