# vtk DataFile Version 4.0
hesp visualization file
ASCII
DATASET UNSTRUCTURED_GRID
POINTS 8 double
1.047108 1.047108 1.057982
8.952836 1.047108 1.057982
1.047108 8.952836 1.057982
8.952836 8.952836 1.057982
1.047108 1.047108 8.963780
8.952836 1.047108 8.963780
1.047108 8.952836 8.963780
8.952836 8.952836 8.963780
CELLS 0 0
CELL_TYPES 0
POINT_DATA 8
SCALARS m double
LOOKUP_TABLE default
1.000000
1.000000
1.000000
1.000000
1.000000
1.000000
1.000000
1.000000
VECTORS v double
1.000000 1.000000 1.462095
-1.000000 1.000000 1.462095
1.000000 -1.000000 1.462095
-1.000000 -1.000000 1.462095
1.000000 1.000000 -0.537962
-1.000000 1.000000 -0.537962
1.000000 -1.000000 -0.537962
-1.000000 -1.000000 -0.537962
