# vtk DataFile Version 4.0
hesp visualization file
ASCII
DATASET UNSTRUCTURED_GRID
POINTS 8 double
1.081113 1.081113 1.113364
8.918790 1.081113 1.113364
1.081113 8.918790 1.113364
8.918790 8.918790 1.113364
1.081113 1.081113 8.951159
8.918790 1.081113 8.951159
1.081113 8.918790 8.951159
8.918790 8.918790 8.951159
CELLS 0 0
CELL_TYPES 0
POINT_DATA 8
SCALARS m double
LOOKUP_TABLE default
1.000000
1.000000
1.000000
1.000000
1.000000
1.000000
1.000000
1.000000
VECTORS v double
1.000000 1.000000 1.795666
-1.000000 1.000000 1.795666
1.000000 -1.000000 1.795666
-1.000000 -1.000000 1.795666
1.000000 1.000000 -0.204429
-1.000000 1.000000 -0.204429
1.000000 -1.000000 -0.204429
-1.000000 -1.000000 -0.204429
