# vtk DataFile Version 4.0
hesp visualization file
ASCII
DATASET UNSTRUCTURED_GRID
POINTS 8 double
1.098116 1.098116 1.145308
8.901767 1.098116 1.145308
1.098116 8.901767 1.145308
8.901767 8.901767 1.145308
1.098116 1.098116 8.949102
8.901767 1.098116 8.949102
1.098116 8.901767 8.949102
8.901767 8.901767 8.949102
CELLS 0 0
CELL_TYPES 0
POINT_DATA 8
SCALARS m double
LOOKUP_TABLE default
1.000000
1.000000
1.000000
1.000000
1.000000
1.000000
1.000000
1.000000
VECTORS v double
1.000000 1.000000 1.962452
-1.000000 1.000000 1.962452
1.000000 -1.000000 1.962452
-1.000000 -1.000000 1.962452
1.000000 1.000000 -0.037659
-1.000000 1.000000 -0.037659
1.000000 -1.000000 -0.037659
-1.000000 -1.000000 -0.037659
