# vtk DataFile Version 4.0
hesp visualization file
ASCII
DATASET UNSTRUCTURED_GRID
POINTS 8 double
1.084114 1.084114 1.118795
8.915786 1.084114 1.118795
1.084114 8.915786 1.118795
8.915786 8.915786 1.118795
1.084114 1.084114 8.950590
8.915786 1.084114 8.950590
1.084114 8.915786 8.950590
8.915786 8.915786 8.950590
CELLS 0 0
CELL_TYPES 0
POINT_DATA 8
SCALARS m double
LOOKUP_TABLE default
1.000000
1.000000
1.000000
1.000000
1.000000
1.000000
1.000000
1.000000
VECTORS v double
1.000000 1.000000 1.825099
-1.000000 1.000000 1.825099
1.000000 -1.000000 1.825099
-1.000000 -1.000000 1.825099
1.000000 1.000000 -0.174999
-1.000000 1.000000 -0.174999
1.000000 -1.000000 -0.174999
-1.000000 -1.000000 -0.174999
