# vtk DataFile Version 4.0
hesp visualization file
ASCII
DATASET UNSTRUCTURED_GRID
POINTS 8 double
1.029105 1.029105 1.033254
8.970860 1.029105 1.033254
1.029105 8.970860 1.033254
8.970860 8.970860 1.033254
1.029105 1.029105 8.975054
8.970860 1.029105 8.975054
1.029105 8.970860 8.975054
8.970860 8.970860 8.975054
CELLS 0 0
CELL_TYPES 0
POINT_DATA 8
SCALARS m double
LOOKUP_TABLE default
1.000000
1.000000
1.000000
1.000000
1.000000
1.000000
1.000000
1.000000
VECTORS v double
1.000000 1.000000 1.285498
-1.000000 1.000000 1.285498
1.000000 -1.000000 1.285498
-1.000000 -1.000000 1.285498
1.000000 1.000000 -0.714537
-1.000000 1.000000 -0.714537
1.000000 -1.000000 -0.714537
-1.000000 -1.000000 -0.714537
