# vtk DataFile Version 4.0
hesp visualization file
ASCII
DATASET UNSTRUCTURED_GRID
POINTS 8 double
1.015103 1.015103 1.016219
8.984879 1.015103 1.016219
1.015103 8.984879 1.016219
8.984879 8.984879 1.016219
1.015103 1.015103 8.986018
8.984879 1.015103 8.986018
1.015103 8.984879 8.986018
8.984879 8.984879 8.986018
CELLS 0 0
CELL_TYPES 0
POINT_DATA 8
SCALARS m double
LOOKUP_TABLE default
1.000000
1.000000
1.000000
1.000000
1.000000
1.000000
1.000000
1.000000
VECTORS v double
1.000000 1.000000 1.148145
-1.000000 1.000000 1.148145
1.000000 -1.000000 1.148145
-1.000000 -1.000000 1.148145
1.000000 1.000000 -0.851873
-1.000000 1.000000 -0.851873
1.000000 -1.000000 -0.851873
-1.000000 -1.000000 -0.851873
