# vtk DataFile Version 4.0
hesp visualization file
ASCII
DATASET UNSTRUCTURED_GRID
POINTS 8 double
1.091115 1.091115 1.131811
8.908776 1.091115 1.131811
1.091115 8.908776 1.131811
8.908776 8.908776 1.131811
1.091115 1.091115 8.949606
8.908776 1.091115 8.949606
1.091115 8.908776 8.949606
8.908776 8.908776 8.949606
CELLS 0 0
CELL_TYPES 0
POINT_DATA 8
SCALARS m double
LOOKUP_TABLE default
1.000000
1.000000
1.000000
1.000000
1.000000
1.000000
1.000000
1.000000
VECTORS v double
1.000000 1.000000 1.893775
-1.000000 1.000000 1.893775
1.000000 -1.000000 1.893775
-1.000000 -1.000000 1.893775
1.000000 1.000000 -0.106329
-1.000000 1.000000 -0.106329
1.000000 -1.000000 -0.106329
-1.000000 -1.000000 -0.106329
