# vtk DataFile Version 4.0
hesp visualization file
ASCII
DATASET UNSTRUCTURED_GRID
POINTS 8 double
1.065111 1.065111 1.085889
8.934812 1.065111 1.085889
1.065111 8.934812 1.085889
8.934812 8.934812 1.085889
1.065111 1.065111 8.955687
8.934812 1.065111 8.955687
1.065111 8.934812 8.955687
8.934812 8.934812 8.955687
CELLS 0 0
CELL_TYPES 0
POINT_DATA 8
SCALARS m double
LOOKUP_TABLE default
1.000000
1.000000
1.000000
1.000000
1.000000
1.000000
1.000000
1.000000
VECTORS v double
1.000000 1.000000 1.638691
-1.000000 1.000000 1.638691
1.000000 -1.000000 1.638691
-1.000000 -1.000000 1.638691
1.000000 1.000000 -0.361386
-1.000000 1.000000 -0.361386
1.000000 -1.000000 -0.361386
-1.000000 -1.000000 -0.361386
