# vtk DataFile Version 4.0
hesp visualization file
ASCII
DATASET UNSTRUCTURED_GRID
POINTS 8 double
1.009102 1.009102 1.009506
8.990888 1.009102 1.009506
1.009102 8.990888 1.009506
8.990888 8.990888 1.009506
1.009102 1.009102 8.991305
8.990888 1.009102 8.991305
1.009102 8.990888 8.991305
8.990888 8.990888 8.991305
CELLS 0 0
CELL_TYPES 0
POINT_DATA 8
SCALARS m double
LOOKUP_TABLE default
1.000000
1.000000
1.000000
1.000000
1.000000
1.000000
1.000000
1.000000
VECTORS v double
1.000000 1.000000 1.089279
-1.000000 1.000000 1.089279
1.000000 -1.000000 1.089279
-1.000000 -1.000000 1.089279
1.000000 1.000000 -0.910731
-1.000000 1.000000 -0.910731
1.000000 -1.000000 -0.910731
-1.000000 -1.000000 -0.910731
