# vtk DataFile Version 4.0
hesp visualization file
ASCII
DATASET UNSTRUCTURED_GRID
POINTS 8 double
1.005101 1.005101 1.005228
8.994893 1.005101 1.005228
1.005101 8.994893 1.005228
8.994893 8.994893 1.005228
1.005101 1.005101 8.995028
8.994893 1.005101 8.995028
1.005101 8.994893 8.995028
8.994893 8.994893 8.995028
CELLS 0 0
CELL_TYPES 0
POINT_DATA 8
SCALARS m double
LOOKUP_TABLE default
1.000000
1.000000
1.000000
1.000000
1.000000
1.000000
1.000000
1.000000
VECTORS v double
1.000000 1.000000 1.050036
-1.000000 1.000000 1.050036
1.000000 -1.000000 1.050036
-1.000000 -1.000000 1.050036
1.000000 1.000000 -0.949970
-1.000000 1.000000 -0.949970
1.000000 -1.000000 -0.949970
-1.000000 -1.000000 -0.949970
