# vtk DataFile Version 4.0
hesp visualization file
ASCII
DATASET UNSTRUCTURED_GRID
POINTS 8 double
1.063110 1.063110 1.082632
8.936814 1.063110 1.082632
1.063110 8.936814 1.082632
8.936814 8.936814 1.082632
1.063110 1.063110 8.956429
8.936814 1.063110 8.956429
1.063110 8.936814 8.956429
8.936814 8.936814 8.956429
CELLS 0 0
CELL_TYPES 0
POINT_DATA 8
SCALARS m double
LOOKUP_TABLE default
1.000000
1.000000
1.000000
1.000000
1.000000
1.000000
1.000000
1.000000
VECTORS v double
1.000000 1.000000 1.619069
-1.000000 1.000000 1.619069
1.000000 -1.000000 1.619069
-1.000000 -1.000000 1.619069
1.000000 1.000000 -0.381006
-1.000000 1.000000 -0.381006
1.000000 -1.000000 -0.381006
-1.000000 -1.000000 -0.381006
