# vtk DataFile Version 4.0
hesp visualization file
ASCII
DATASET UNSTRUCTURED_GRID
POINTS 8 double
1.095116 1.095116 1.139465
8.904771 1.095116 1.139465
1.095116 8.904771 1.139465
8.904771 8.904771 1.139465
1.095116 1.095116 8.949260
8.904771 1.095116 8.949260
1.095116 8.904771 8.949260
8.904771 8.904771 8.949260
CELLS 0 0
CELL_TYPES 0
POINT_DATA 8
SCALARS m double
LOOKUP_TABLE default
1.000000
1.000000
1.000000
1.000000
1.000000
1.000000
1.000000
1.000000
VECTORS v double
1.000000 1.000000 1.933019
-1.000000 1.000000 1.933019
1.000000 -1.000000 1.933019
-1.000000 -1.000000 1.933019
1.000000 1.000000 -0.067089
-1.000000 1.000000 -0.067089
1.000000 -1.000000 -0.067089
-1.000000 -1.000000 -0.067089
