# vtk DataFile Version 4.0
hesp visualization file
ASCII
DATASET UNSTRUCTURED_GRID
POINTS 8 double
1.000100 1.000100 1.000100
8.999900 1.000100 1.000100
1.000100 8.999900 1.000100
8.999900 8.999900 1.000100
1.000100 1.000100 8.999900
8.999900 1.000100 8.999900
1.000100 8.999900 8.999900
8.999900 8.999900 8.999900
CELLS 0 0
CELL_TYPES 0
POINT_DATA 8
SCALARS m double
LOOKUP_TABLE default
1.000000
1.000000
1.000000
1.000000
1.000000
1.000000
1.000000
1.000000
VECTORS v double
1.000000 1.000000 1.000981
-1.000000 1.000000 1.000981
1.000000 -1.000000 1.000981
-1.000000 -1.000000 1.000981
1.000000 1.000000 -0.999019
-1.000000 1.000000 -0.999019
1.000000 -1.000000 -0.999019
-1.000000 -1.000000 -0.999019
