# vtk DataFile Version 4.0
hesp visualization file
ASCII
DATASET UNSTRUCTURED_GRID
POINTS 8 double
1.023104 1.023104 1.025718
8.976869 1.023104 1.025718
1.023104 8.976869 1.025718
8.976869 8.976869 1.025718
1.023104 1.023104 8.979518
8.976869 1.023104 8.979518
1.023104 8.976869 8.979518
8.976869 8.976869 8.979518
CELLS 0 0
CELL_TYPES 0
POINT_DATA 8
SCALARS m double
LOOKUP_TABLE default
1.000000
1.000000
1.000000
1.000000
1.000000
1.000000
1.000000
1.000000
VECTORS v double
1.000000 1.000000 1.226632
-1.000000 1.000000 1.226632
1.000000 -1.000000 1.226632
-1.000000 -1.000000 1.226632
1.000000 1.000000 -0.773395
-1.000000 1.000000 -0.773395
1.000000 -1.000000 -0.773395
-1.000000 -1.000000 -0.773395
