# vtk DataFile Version 4.0
hesp visualization file
ASCII
DATASET UNSTRUCTURED_GRID
POINTS 8 double
1.034106 1.034106 1.039804
8.965854 1.034106 1.039804
1.034106 8.965854 1.039804
8.965854 8.965854 1.039804
1.034106 1.034106 8.971603
8.965854 1.034106 8.971603
1.034106 8.965854 8.971603
8.965854 8.965854 8.971603
CELLS 0 0
CELL_TYPES 0
POINT_DATA 8
SCALARS m double
LOOKUP_TABLE default
1.000000
1.000000
1.000000
1.000000
1.000000
1.000000
1.000000
1.000000
VECTORS v double
1.000000 1.000000 1.334553
-1.000000 1.000000 1.334553
1.000000 -1.000000 1.334553
-1.000000 -1.000000 1.334553
1.000000 1.000000 -0.665488
-1.000000 1.000000 -0.665488
1.000000 -1.000000 -0.665488
-1.000000 -1.000000 -0.665488
