# vtk DataFile Version 4.0
hesp visualization file
ASCII
DATASET UNSTRUCTURED_GRID
POINTS 8 double
1.092115 1.092115 1.133710
8.907775 1.092115 1.133710
1.092115 8.907775 1.133710
8.907775 8.907775 1.133710
1.092115 1.092115 8.949505
8.907775 1.092115 8.949505
1.092115 8.907775 8.949505
8.907775 8.907775 8.949505
CELLS 0 0
CELL_TYPES 0
POINT_DATA 8
SCALARS m double
LOOKUP_TABLE default
1.000000
1.000000
1.000000
1.000000
1.000000
1.000000
1.000000
1.000000
VECTORS v double
1.000000 1.000000 1.903586
-1.000000 1.000000 1.903586
1.000000 -1.000000 1.903586
-1.000000 -1.000000 1.903586
1.000000 1.000000 -0.096519
-1.000000 1.000000 -0.096519
1.000000 -1.000000 -0.096519
-1.000000 -1.000000 -0.096519
