# vtk DataFile Version 4.0
hesp visualization file
ASCII
DATASET UNSTRUCTURED_GRID
POINTS 8 double
1.004101 1.004101 1.004182
8.995894 1.004101 1.004182
1.004101 8.995894 1.004182
8.995894 8.995894 1.004182
1.004101 1.004101 8.995982
8.995894 1.004101 8.995982
1.004101 8.995894 8.995982
8.995894 8.995894 8.995982
CELLS 0 0
CELL_TYPES 0
POINT_DATA 8
SCALARS m double
LOOKUP_TABLE default
1.000000
1.000000
1.000000
1.000000
1.000000
1.000000
1.000000
1.000000
VECTORS v double
1.000000 1.000000 1.040225
-1.000000 1.000000 1.040225
1.000000 -1.000000 1.040225
-1.000000 -1.000000 1.040225
1.000000 1.000000 -0.959780
-1.000000 1.000000 -0.959780
1.000000 -1.000000 -0.959780
-1.000000 -1.000000 -0.959780
