# vtk DataFile Version 4.0
hesp visualization file
ASCII
DATASET UNSTRUCTURED_GRID
POINTS 8 double
1.057109 1.057109 1.073094
8.942822 1.057109 1.073094
1.057109 8.942822 1.073094
8.942822 8.942822 1.073094
1.057109 1.057109 8.958892
8.942822 1.057109 8.958892
1.057109 8.942822 8.958892
8.942822 8.942822 8.958892
CELLS 0 0
CELL_TYPES 0
POINT_DATA 8
SCALARS m double
LOOKUP_TABLE default
1.000000
1.000000
1.000000
1.000000
1.000000
1.000000
1.000000
1.000000
VECTORS v double
1.000000 1.000000 1.560204
-1.000000 1.000000 1.560204
1.000000 -1.000000 1.560204
-1.000000 -1.000000 1.560204
1.000000 1.000000 -0.439864
-1.000000 1.000000 -0.439864
1.000000 -1.000000 -0.439864
-1.000000 -1.000000 -0.439864
