# vtk DataFile Version 4.0
hesp visualization file
ASCII
DATASET UNSTRUCTURED_GRID
POINTS 8 double
1.087114 1.087114 1.124315
8.912782 1.087114 1.124315
1.087114 8.912782 1.124315
8.912782 8.912782 1.124315
1.087114 1.087114 8.950109
8.912782 1.087114 8.950109
1.087114 8.912782 8.950109
8.912782 8.912782 8.950109
CELLS 0 0
CELL_TYPES 0
POINT_DATA 8
SCALARS m double
LOOKUP_TABLE default
1.000000
1.000000
1.000000
1.000000
1.000000
1.000000
1.000000
1.000000
VECTORS v double
1.000000 1.000000 1.854532
-1.000000 1.000000 1.854532
1.000000 -1.000000 1.854532
-1.000000 -1.000000 1.854532
1.000000 1.000000 -0.145569
-1.000000 1.000000 -0.145569
1.000000 -1.000000 -0.145569
-1.000000 -1.000000 -0.145569
