# vtk DataFile Version 4.0
hesp visualization file
ASCII
DATASET UNSTRUCTURED_GRID
POINTS 8 double
1.054109 1.054109 1.068457
8.945827 1.054109 1.068457
1.054109 8.945827 1.068457
8.945827 8.945827 1.068457
1.054109 1.054109 8.960256
8.945827 1.054109 8.960256
1.054109 8.945827 8.960256
8.945827 8.945827 8.960256
CELLS 0 0
CELL_TYPES 0
POINT_DATA 8
SCALARS m double
LOOKUP_TABLE default
1.000000
1.000000
1.000000
1.000000
1.000000
1.000000
1.000000
1.000000
VECTORS v double
1.000000 1.000000 1.530771
-1.000000 1.000000 1.530771
1.000000 -1.000000 1.530771
-1.000000 -1.000000 1.530771
1.000000 1.000000 -0.469293
-1.000000 1.000000 -0.469293
1.000000 -1.000000 -0.469293
-1.000000 -1.000000 -0.469293
