# vtk DataFile Version 4.0
hesp visualization file
ASCII
DATASET UNSTRUCTURED_GRID
POINTS 8 double
1.011102 1.011102 1.011704
8.988885 1.011102 1.011704
1.011102 8.988885 1.011704
8.988885 8.988885 1.011704
1.011102 1.011102 8.989504
8.988885 1.011102 8.989504
1.011102 8.988885 8.989504
8.988885 8.988885 8.989504
CELLS 0 0
CELL_TYPES 0
POINT_DATA 8
SCALARS m double
LOOKUP_TABLE default
1.000000
1.000000
1.000000
1.000000
1.000000
1.000000
1.000000
1.000000
VECTORS v double
1.000000 1.000000 1.108901
-1.000000 1.000000 1.108901
1.000000 -1.000000 1.108901
-1.000000 -1.000000 1.108901
1.000000 1.000000 -0.891112
-1.000000 1.000000 -0.891112
1.000000 -1.000000 -0.891112
-1.000000 -1.000000 -0.891112
