# vtk DataFile Version 4.0
hesp visualization file
ASCII
DATASET UNSTRUCTURED_GRID
POINTS 8 double
1.022104 1.022104 1.024496
8.977870 1.022104 1.024496
1.022104 8.977870 1.024496
8.977870 8.977870 1.024496
1.022104 1.022104 8.980296
8.977870 1.022104 8.980296
1.022104 8.977870 8.980296
8.977870 8.977870 8.980296
CELLS 0 0
CELL_TYPES 0
POINT_DATA 8
SCALARS m double
LOOKUP_TABLE default
1.000000
1.000000
1.000000
1.000000
1.000000
1.000000
1.000000
1.000000
VECTORS v double
1.000000 1.000000 1.216821
-1.000000 1.000000 1.216821
1.000000 -1.000000 1.216821
-1.000000 -1.000000 1.216821
1.000000 1.000000 -0.783205
-1.000000 1.000000 -0.783205
1.000000 -1.000000 -0.783205
-1.000000 -1.000000 -0.783205
