# vtk DataFile Version 4.0
hesp visualization file
ASCII
DATASET UNSTRUCTURED_GRID
POINTS 8 double
1.089115 1.089115 1.128044
8.910779 1.089115 1.128044
1.089115 8.910779 1.128044
8.910779 8.910779 1.128044
1.089115 1.089115 8.949839
8.910779 1.089115 8.949839
1.089115 8.910779 8.949839
8.910779 8.910779 8.949839
CELLS 0 0
CELL_TYPES 0
POINT_DATA 8
SCALARS m double
LOOKUP_TABLE default
1.000000
1.000000
1.000000
1.000000
1.000000
1.000000
1.000000
1.000000
VECTORS v double
1.000000 1.000000 1.874153
-1.000000 1.000000 1.874153
1.000000 -1.000000 1.874153
-1.000000 -1.000000 1.874153
1.000000 1.000000 -0.125949
-1.000000 1.000000 -0.125949
1.000000 -1.000000 -0.125949
-1.000000 -1.000000 -0.125949
