# vtk DataFile Version 4.0
hesp visualization file
ASCII
DATASET UNSTRUCTURED_GRID
POINTS 8 double
1.076113 1.076113 1.104509
8.923797 1.076113 1.104509
1.076113 8.923797 1.104509
8.923797 8.923797 1.104509
1.076113 1.076113 8.952304
8.923797 1.076113 8.952304
1.076113 8.923797 8.952304
8.923797 8.923797 8.952304
CELLS 0 0
CELL_TYPES 0
POINT_DATA 8
SCALARS m double
LOOKUP_TABLE default
1.000000
1.000000
1.000000
1.000000
1.000000
1.000000
1.000000
1.000000
VECTORS v double
1.000000 1.000000 1.746611
-1.000000 1.000000 1.746611
1.000000 -1.000000 1.746611
-1.000000 -1.000000 1.746611
1.000000 1.000000 -0.253479
-1.000000 1.000000 -0.253479
1.000000 -1.000000 -0.253479
-1.000000 -1.000000 -0.253479
