# vtk DataFile Version 4.0
hesp visualization file
ASCII
DATASET UNSTRUCTURED_GRID
POINTS 8 double
1.041107 1.041107 1.049386
8.958844 1.041107 1.049386
1.041107 8.958844 1.049386
8.958844 8.958844 1.049386
1.041107 1.041107 8.967185
8.958844 1.041107 8.967185
1.041107 8.958844 8.967185
8.958844 8.958844 8.967185
CELLS 0 0
CELL_TYPES 0
POINT_DATA 8
SCALARS m double
LOOKUP_TABLE default
1.000000
1.000000
1.000000
1.000000
1.000000
1.000000
1.000000
1.000000
VECTORS v double
1.000000 1.000000 1.403229
-1.000000 1.000000 1.403229
1.000000 -1.000000 1.403229
-1.000000 -1.000000 1.403229
1.000000 1.000000 -0.596820
-1.000000 1.000000 -0.596820
1.000000 -1.000000 -0.596820
-1.000000 -1.000000 -0.596820
