# vtk DataFile Version 4.0
hesp visualization file
ASCII
DATASET UNSTRUCTURED_GRID
POINTS 8 double
1.031105 1.031105 1.035845
8.968858 1.031105 1.035845
1.031105 8.968858 1.035845
8.968858 8.968858 1.035845
1.031105 1.031105 8.973644
8.968858 1.031105 8.973644
1.031105 8.968858 8.973644
8.968858 8.968858 8.973644
CELLS 0 0
CELL_TYPES 0
POINT_DATA 8
SCALARS m double
LOOKUP_TABLE default
1.000000
1.000000
1.000000
1.000000
1.000000
1.000000
1.000000
1.000000
VECTORS v double
1.000000 1.000000 1.305120
-1.000000 1.000000 1.305120
1.000000 -1.000000 1.305120
-1.000000 -1.000000 1.305120
1.000000 1.000000 -0.694917
-1.000000 1.000000 -0.694917
1.000000 -1.000000 -0.694917
-1.000000 -1.000000 -0.694917
