# vtk DataFile Version 4.0
hesp visualization file
ASCII
DATASET UNSTRUCTURED_GRID
POINTS 8 double
1.078113 1.078113 1.108021
8.921794 1.078113 1.108021
1.078113 8.921794 1.108021
8.921794 8.921794 1.108021
1.078113 1.078113 8.951817
8.921794 1.078113 8.951817
1.078113 8.921794 8.951817
8.921794 8.921794 8.951817
CELLS 0 0
CELL_TYPES 0
POINT_DATA 8
SCALARS m double
LOOKUP_TABLE default
1.000000
1.000000
1.000000
1.000000
1.000000
1.000000
1.000000
1.000000
VECTORS v double
1.000000 1.000000 1.766233
-1.000000 1.000000 1.766233
1.000000 -1.000000 1.766233
-1.000000 -1.000000 1.766233
1.000000 1.000000 -0.233859
-1.000000 1.000000 -0.233859
1.000000 -1.000000 -0.233859
-1.000000 -1.000000 -0.233859
