# vtk DataFile Version 4.0
hesp visualization file
ASCII
DATASET UNSTRUCTURED_GRID
POINTS 8 double
1.068111 1.068111 1.090850
8.931808 1.068111 1.090850
1.068111 8.931808 1.090850
8.931808 8.931808 1.090850
1.068111 1.068111 8.954646
8.931808 1.068111 8.954646
1.068111 8.931808 8.954646
8.931808 8.931808 8.954646
CELLS 0 0
CELL_TYPES 0
POINT_DATA 8
SCALARS m double
LOOKUP_TABLE default
1.000000
1.000000
1.000000
1.000000
1.000000
1.000000
1.000000
1.000000
VECTORS v double
1.000000 1.000000 1.668124
-1.000000 1.000000 1.668124
1.000000 -1.000000 1.668124
-1.000000 -1.000000 1.668124
1.000000 1.000000 -0.331957
-1.000000 1.000000 -0.331957
1.000000 -1.000000 -0.331957
-1.000000 -1.000000 -0.331957
