# vtk DataFile Version 4.0
hesp visualization file
ASCII
DATASET UNSTRUCTURED_GRID
POINTS 8 double
1.017103 1.017103 1.018534
8.982877 1.017103 1.018534
1.017103 8.982877 1.018534
8.982877 8.982877 1.018534
1.017103 1.017103 8.984334
8.982877 1.017103 8.984334
1.017103 8.982877 8.984334
8.982877 8.982877 8.984334
CELLS 0 0
CELL_TYPES 0
POINT_DATA 8
SCALARS m double
LOOKUP_TABLE default
1.000000
1.000000
1.000000
1.000000
1.000000
1.000000
1.000000
1.000000
VECTORS v double
1.000000 1.000000 1.167767
-1.000000 1.000000 1.167767
1.000000 -1.000000 1.167767
-1.000000 -1.000000 1.167767
1.000000 1.000000 -0.832254
-1.000000 1.000000 -0.832254
1.000000 -1.000000 -0.832254
-1.000000 -1.000000 -0.832254
