# vtk DataFile Version 4.0
hesp visualization file
ASCII
DATASET UNSTRUCTURED_GRID
POINTS 8 double
1.085114 1.085114 1.120625
8.914784 1.085114 1.120625
1.085114 8.914784 1.120625
8.914784 8.914784 1.120625
1.085114 1.085114 8.950420
8.914784 1.085114 8.950420
1.085114 8.914784 8.950420
8.914784 8.914784 8.950420
CELLS 0 0
CELL_TYPES 0
POINT_DATA 8
SCALARS m double
LOOKUP_TABLE default
1.000000
1.000000
1.000000
1.000000
1.000000
1.000000
1.000000
1.000000
VECTORS v double
1.000000 1.000000 1.834910
-1.000000 1.000000 1.834910
1.000000 -1.000000 1.834910
-1.000000 -1.000000 1.834910
1.000000 1.000000 -0.165189
-1.000000 1.000000 -0.165189
1.000000 -1.000000 -0.165189
-1.000000 -1.000000 -0.165189
