# vtk DataFile Version 4.0
hesp visualization file
ASCII
DATASET UNSTRUCTURED_GRID
POINTS 8 double
1.037106 1.037106 1.043852
8.962850 1.037106 1.043852
1.037106 8.962850 1.043852
8.962850 8.962850 1.043852
1.037106 1.037106 8.969651
8.962850 1.037106 8.969651
1.037106 8.962850 8.969651
8.962850 8.962850 8.969651
CELLS 0 0
CELL_TYPES 0
POINT_DATA 8
SCALARS m double
LOOKUP_TABLE default
1.000000
1.000000
1.000000
1.000000
1.000000
1.000000
1.000000
1.000000
VECTORS v double
1.000000 1.000000 1.363985
-1.000000 1.000000 1.363985
1.000000 -1.000000 1.363985
-1.000000 -1.000000 1.363985
1.000000 1.000000 -0.636059
-1.000000 1.000000 -0.636059
1.000000 -1.000000 -0.636059
-1.000000 -1.000000 -0.636059
