# vtk DataFile Version 4.0
hesp visualization file
ASCII
DATASET UNSTRUCTURED_GRID
POINTS 8 double
1.016103 1.016103 1.017372
8.983878 1.016103 1.017372
1.016103 8.983878 1.017372
8.983878 8.983878 1.017372
1.016103 1.016103 8.985171
8.983878 1.016103 8.985171
1.016103 8.983878 8.985171
8.983878 8.983878 8.985171
CELLS 0 0
CELL_TYPES 0
POINT_DATA 8
SCALARS m double
LOOKUP_TABLE default
1.000000
1.000000
1.000000
1.000000
1.000000
1.000000
1.000000
1.000000
VECTORS v double
1.000000 1.000000 1.157956
-1.000000 1.000000 1.157956
1.000000 -1.000000 1.157956
-1.000000 -1.000000 1.157956
1.000000 1.000000 -0.842063
-1.000000 1.000000 -0.842063
1.000000 -1.000000 -0.842063
-1.000000 -1.000000 -0.842063
