# vtk DataFile Version 4.0
hesp visualization file
ASCII
DATASET UNSTRUCTURED_GRID
POINTS 8 double
1.088115 1.088115 1.126174
8.911780 1.088115 1.126174
1.088115 8.911780 1.126174
8.911780 8.911780 1.126174
1.088115 1.088115 8.949969
8.911780 1.088115 8.949969
1.088115 8.911780 8.949969
8.911780 8.911780 8.949969
CELLS 0 0
CELL_TYPES 0
POINT_DATA 8
SCALARS m double
LOOKUP_TABLE default
1.000000
1.000000
1.000000
1.000000
1.000000
1.000000
1.000000
1.000000
VECTORS v double
1.000000 1.000000 1.864342
-1.000000 1.000000 1.864342
1.000000 -1.000000 1.864342
-1.000000 -1.000000 1.864342
1.000000 1.000000 -0.135759
-1.000000 1.000000 -0.135759
1.000000 -1.000000 -0.135759
-1.000000 -1.000000 -0.135759
