# vtk DataFile Version 4.0
hesp visualization file
ASCII
DATASET UNSTRUCTURED_GRID
POINTS 8 double
1.020103 1.020103 1.022082
8.979873 1.020103 1.022082
1.020103 8.979873 1.022082
8.979873 8.979873 1.022082
1.020103 1.020103 8.981882
8.979873 1.020103 8.981882
1.020103 8.979873 8.981882
8.979873 8.979873 8.981882
CELLS 0 0
CELL_TYPES 0
POINT_DATA 8
SCALARS m double
LOOKUP_TABLE default
1.000000
1.000000
1.000000
1.000000
1.000000
1.000000
1.000000
1.000000
VECTORS v double
1.000000 1.000000 1.197200
-1.000000 1.000000 1.197200
1.000000 -1.000000 1.197200
-1.000000 -1.000000 1.197200
1.000000 1.000000 -0.802824
-1.000000 1.000000 -0.802824
1.000000 -1.000000 -0.802824
-1.000000 -1.000000 -0.802824
