# vtk DataFile Version 4.0
hesp visualization file
ASCII
DATASET UNSTRUCTURED_GRID
POINTS 8 double
1.002100 1.002100 1.002122
8.997897 1.002100 1.002122
1.002100 8.997897 1.002122
8.997897 8.997897 1.002122
1.002100 1.002100 8.997922
8.997897 1.002100 8.997922
1.002100 8.997897 8.997922
8.997897 8.997897 8.997922
CELLS 0 0
CELL_TYPES 0
POINT_DATA 8
SCALARS m double
LOOKUP_TABLE default
1.000000
1.000000
1.000000
1.000000
1.000000
1.000000
1.000000
1.000000
VECTORS v double
1.000000 1.000000 1.020603
-1.000000 1.000000 1.020603
1.000000 -1.000000 1.020603
-1.000000 -1.000000 1.020603
1.000000 1.000000 -0.979400
-1.000000 1.000000 -0.979400
1.000000 -1.000000 -0.979400
-1.000000 -1.000000 -0.979400
