# vtk DataFile Version 4.0
hesp visualization file
ASCII
DATASET UNSTRUCTURED_GRID
POINTS 8 double
1.007101 1.007101 1.007347
8.992890 1.007101 1.007347
1.007101 8.992890 1.007347
8.992890 8.992890 1.007347
1.007101 1.007101 8.993147
8.992890 1.007101 8.993147
1.007101 8.992890 8.993147
8.992890 8.992890 8.993147
CELLS 0 0
CELL_TYPES 0
POINT_DATA 8
SCALARS m double
LOOKUP_TABLE default
1.000000
1.000000
1.000000
1.000000
1.000000
1.000000
1.000000
1.000000
VECTORS v double
1.000000 1.000000 1.069658
-1.000000 1.000000 1.069658
1.000000 -1.000000 1.069658
-1.000000 -1.000000 1.069658
1.000000 1.000000 -0.930351
-1.000000 1.000000 -0.930351
1.000000 -1.000000 -0.930351
-1.000000 -1.000000 -0.930351
