# vtk DataFile Version 4.0
hesp visualization file
ASCII
DATASET UNSTRUCTURED_GRID
POINTS 8 double
1.001100 1.001100 1.001106
8.998899 1.001100 1.001106
1.001100 8.998899 1.001106
8.998899 8.998899 1.001106
1.001100 1.001100 8.998906
8.998899 1.001100 8.998906
1.001100 8.998899 8.998906
8.998899 8.998899 8.998906
CELLS 0 0
CELL_TYPES 0
POINT_DATA 8
SCALARS m double
LOOKUP_TABLE default
1.000000
1.000000
1.000000
1.000000
1.000000
1.000000
1.000000
1.000000
VECTORS v double
1.000000 1.000000 1.010792
-1.000000 1.000000 1.010792
1.000000 -1.000000 1.010792
-1.000000 -1.000000 1.010792
1.000000 1.000000 -0.989209
-1.000000 1.000000 -0.989209
1.000000 -1.000000 -0.989209
-1.000000 -1.000000 -0.989209
