# vtk DataFile Version 4.0
hesp visualization file
ASCII
DATASET UNSTRUCTURED_GRID
POINTS 12 double
2.070028 2.000000 2.024103
4.070195 2.000000 2.024103
5.929805 2.000000 2.024103
7.929805 2.000000 2.024103
2.070028 4.000000 2.024103
4.070195 4.000000 2.024103
5.929805 4.000000 2.024103
7.929805 4.000000 2.024103
2.070028 6.000000 2.024103
4.070195 6.000000 2.024103
5.929805 6.000000 2.024103
7.929805 6.000000 2.024103
CELLS 0 0
CELL_TYPES 0
POINT_DATA 12
SCALARS m double
LOOKUP_TABLE default
1.000000
1.000000
1.000000
1.000000
1.000000
1.000000
1.000000
1.000000
1.000000
1.000000
1.000000
1.000000
VECTORS v double
1.000000 0.000000 0.687670
1.000000 0.000000 0.687670
-1.000000 0.000000 0.687670
-1.000000 0.000000 0.687670
1.000000 0.000000 0.687670
1.000000 0.000000 0.687670
-1.000000 0.000000 0.687670
-1.000000 0.000000 0.687670
1.000000 0.000000 0.687670
1.000000 0.000000 0.687670
-1.000000 0.000000 0.687670
-1.000000 0.000000 0.687670
